ITEM: TIMESTEP
0
ITEM: NUMBER OF ATOMS
200
ITEM: BOX BOUNDS pp ff pp
0.0000000000000000e+00 4.0000000000000000e+01
0.0000000000000000e+00 8.0000000000000000e+01
0.0000000000000000e+00 1.2000000000000000e+01
ITEM: ATOMS id mol type x y z vx vy vz 
1 1 1 0 1 3 0 0 0 
2 1 2 39.5928 2.09719 3 0 0 0 
3 1 3 39.0942 3.08683 3 0 0 0 
4 1 4 38.5128 3.97804 3 0 0 0 
5 1 5 37.8574 4.77994 3 0 0 0 
6 1 6 37.1369 5.50166 3 0 0 0 
7 1 7 36.3599 6.15231 3 0 0 0 
8 1 8 35.5352 6.74101 3 0 0 0 
9 1 9 34.6716 7.27689 3 0 0 0 
10 1 10 33.7778 7.76905 3 0 0 0 
11 1 11 32.8626 8.22663 3 0 0 0 
12 1 12 31.9347 8.65874 3 0 0 0 
13 1 13 31.003 9.0745 3 0 0 0 
14 1 14 30.0761 9.48303 3 0 0 0 
15 1 15 29.1629 9.89345 3 0 0 0 
16 1 16 28.2721 10.3149 3 0 0 0 
17 1 17 27.4124 10.7564 3 0 0 0 
18 1 18 26.5927 11.2273 3 0 0 0 
19 1 19 25.8216 11.7364 3 0 0 0 
20 1 20 25.108 12.2931 3 0 0 0 
21 1 21 24.4606 12.9064 3 0 0 0 
22 1 22 23.8881 13.5854 3 0 0 0 
23 1 23 23.3993 14.3393 3 0 0 0 
24 1 24 23.003 15.1771 3 0 0 0 
25 1 25 22.708 16.108 3 0 0 0 
26 2 1 20 1 3 0 0 0 
27 2 2 19.42 2.07783 3 0 0 0 
28 2 3 19.0028 3.10763 3 0 0 0 
29 2 4 18.7392 4.08988 3 0 0 0 
30 2 5 18.6199 5.02506 3 0 0 0 
31 2 6 18.6356 5.91362 3 0 0 0 
32 2 7 18.7771 6.75606 3 0 0 0 
33 2 8 19.0352 7.55284 3 0 0 0 
34 2 9 19.4004 8.30444 3 0 0 0 
35 2 10 19.8637 9.01134 3 0 0 0 
36 2 11 20.4158 9.67399 3 0 0 0 
37 2 12 21.0473 10.2929 3 0 0 0 
38 2 13 21.749 10.8685 3 0 0 0 
39 2 14 22.5117 11.4013 3 0 0 0 
40 2 15 23.3261 11.8918 3 0 0 0 
41 2 16 24.1829 12.3404 3 0 0 0 
42 2 17 25.0729 12.7476 3 0 0 0 
43 2 18 25.9868 13.1138 3 0 0 0 
44 2 19 26.9154 13.4397 3 0 0 0 
45 2 20 27.8493 13.7256 3 0 0 0 
46 2 21 28.7794 13.9719 3 0 0 0 
47 2 22 29.6964 14.1793 3 0 0 0 
48 2 23 30.591 14.3481 3 0 0 0 
49 2 24 31.454 14.4789 3 0 0 0 
50 2 25 32.276 14.572 3 0 0 0 
51 3 1 0 1 11 0 0 0 
52 3 2 39.5928 2.09719 11 0 0 0 
53 3 3 39.0942 3.08683 11 0 0 0 
54 3 4 38.5128 3.97804 11 0 0 0 
55 3 5 37.8574 4.77994 11 0 0 0 
56 3 6 37.1369 5.50166 11 0 0 0 
57 3 7 36.3599 6.15231 11 0 0 0 
58 3 8 35.5352 6.74101 11 0 0 0 
59 3 9 34.6716 7.27689 11 0 0 0 
60 3 10 33.7778 7.76905 11 0 0 0 
61 3 11 32.8626 8.22663 11 0 0 0 
62 3 12 31.9347 8.65874 11 0 0 0 
63 3 13 31.003 9.0745 11 0 0 0 
64 3 14 30.0761 9.48303 11 0 0 0 
65 3 15 29.1629 9.89345 11 0 0 0 
66 3 16 28.2721 10.3149 11 0 0 0 
67 3 17 27.4124 10.7564 11 0 0 0 
68 3 18 26.5927 11.2273 11 0 0 0 
69 3 19 25.8216 11.7364 11 0 0 0 
70 3 20 25.108 12.2931 11 0 0 0 
71 3 21 24.4606 12.9064 11 0 0 0 
72 3 22 23.8881 13.5854 11 0 0 0 
73 3 23 23.3993 14.3393 11 0 0 0 
74 3 24 23.003 15.1771 11 0 0 0 
75 3 25 22.708 16.108 11 0 0 0 
76 4 1 20 1 11 0 0 0 
77 4 2 19.42 2.07783 11 0 0 0 
78 4 3 19.0028 3.10763 11 0 0 0 
79 4 4 18.7392 4.08988 11 0 0 0 
80 4 5 18.6199 5.02506 11 0 0 0 
81 4 6 18.6356 5.91362 11 0 0 0 
82 4 7 18.7771 6.75606 11 0 0 0 
83 4 8 19.0352 7.55284 11 0 0 0 
84 4 9 19.4004 8.30444 11 0 0 0 
85 4 10 19.8637 9.01134 11 0 0 0 
86 4 11 20.4158 9.67399 11 0 0 0 
87 4 12 21.0473 10.2929 11 0 0 0 
88 4 13 21.749 10.8685 11 0 0 0 
89 4 14 22.5117 11.4013 11 0 0 0 
90 4 15 23.3261 11.8918 11 0 0 0 
91 4 16 24.1829 12.3404 11 0 0 0 
92 4 17 25.0729 12.7476 11 0 0 0 
93 4 18 25.9868 13.1138 11 0 0 0 
94 4 19 26.9154 13.4397 11 0 0 0 
95 4 20 27.8493 13.7256 11 0 0 0 
96 4 21 28.7794 13.9719 11 0 0 0 
97 4 22 29.6964 14.1793 11 0 0 0 
98 4 23 30.591 14.3481 11 0 0 0 
99 4 24 31.454 14.4789 11 0 0 0 
100 4 25 32.276 14.572 11 0 0 0 
101 1 26 39 1 3 0 0 0 
102 1 26 38.5928 2.09719 3 0 0 0 
103 1 26 38.0942 3.08683 3 0 0 0 
104 1 26 37.5128 3.97804 3 0 0 0 
105 1 26 36.8574 4.77994 3 0 0 0 
106 1 26 36.1369 5.50166 3 0 0 0 
107 1 26 35.3599 6.15231 3 0 0 0 
108 1 26 34.5352 6.74101 3 0 0 0 
109 1 26 33.6716 7.27689 3 0 0 0 
110 1 26 32.7778 7.76905 3 0 0 0 
111 1 26 31.8626 8.22663 3 0 0 0 
112 1 26 30.9347 8.65874 3 0 0 0 
113 1 26 30.003 9.0745 3 0 0 0 
114 1 26 29.0761 9.48303 3 0 0 0 
115 1 26 28.1629 9.89345 3 0 0 0 
116 1 26 27.2721 10.3149 3 0 0 0 
117 1 26 26.4124 10.7564 3 0 0 0 
118 1 26 25.5927 11.2273 3 0 0 0 
119 1 26 24.8216 11.7364 3 0 0 0 
120 1 26 24.108 12.2931 3 0 0 0 
121 1 26 23.4606 12.9064 3 0 0 0 
122 1 26 22.8881 13.5854 3 0 0 0 
123 1 26 22.3993 14.3393 3 0 0 0 
124 1 26 22.003 15.1771 3 0 0 0 
125 1 26 21.708 16.108 3 0 0 0 
126 2 26 19 1 3 0 0 0 
127 2 26 18.42 2.07783 3 0 0 0 
128 2 26 18.0028 3.10763 3 0 0 0 
129 2 26 17.7392 4.08988 3 0 0 0 
130 2 26 17.6199 5.02506 3 0 0 0 
131 2 26 17.6356 5.91362 3 0 0 0 
132 2 26 17.7771 6.75606 3 0 0 0 
133 2 26 18.0352 7.55284 3 0 0 0 
134 2 26 18.4004 8.30444 3 0 0 0 
135 2 26 18.8637 9.01134 3 0 0 0 
136 2 26 19.4158 9.67399 3 0 0 0 
137 2 26 20.0473 10.2929 3 0 0 0 
138 2 26 20.749 10.8685 3 0 0 0 
139 2 26 21.5117 11.4013 3 0 0 0 
140 2 26 22.3261 11.8918 3 0 0 0 
141 2 26 23.1829 12.3404 3 0 0 0 
142 2 26 24.0729 12.7476 3 0 0 0 
143 2 26 24.9868 13.1138 3 0 0 0 
144 2 26 25.9154 13.4397 3 0 0 0 
145 2 26 26.8493 13.7256 3 0 0 0 
146 2 26 27.7794 13.9719 3 0 0 0 
147 2 26 28.6964 14.1793 3 0 0 0 
148 2 26 29.591 14.3481 3 0 0 0 
149 2 26 30.454 14.4789 3 0 0 0 
150 2 26 31.276 14.572 3 0 0 0 
151 3 26 39 1 11 0 0 0 
152 3 26 38.5928 2.09719 11 0 0 0 
153 3 26 38.0942 3.08683 11 0 0 0 
154 3 26 37.5128 3.97804 11 0 0 0 
155 3 26 36.8574 4.77994 11 0 0 0 
156 3 26 36.1369 5.50166 11 0 0 0 
157 3 26 35.3599 6.15231 11 0 0 0 
158 3 26 34.5352 6.74101 11 0 0 0 
159 3 26 33.6716 7.27689 11 0 0 0 
160 3 26 32.7778 7.76905 11 0 0 0 
161 3 26 31.8626 8.22663 11 0 0 0 
162 3 26 30.9347 8.65874 11 0 0 0 
163 3 26 30.003 9.0745 11 0 0 0 
164 3 26 29.0761 9.48303 11 0 0 0 
165 3 26 28.1629 9.89345 11 0 0 0 
166 3 26 27.2721 10.3149 11 0 0 0 
167 3 26 26.4124 10.7564 11 0 0 0 
168 3 26 25.5927 11.2273 11 0 0 0 
169 3 26 24.8216 11.7364 11 0 0 0 
170 3 26 24.108 12.2931 11 0 0 0 
171 3 26 23.4606 12.9064 11 0 0 0 
172 3 26 22.8881 13.5854 11 0 0 0 
173 3 26 22.3993 14.3393 11 0 0 0 
174 3 26 22.003 15.1771 11 0 0 0 
175 3 26 21.708 16.108 11 0 0 0 
176 4 26 19 1 11 0 0 0 
177 4 26 18.42 2.07783 11 0 0 0 
178 4 26 18.0028 3.10763 11 0 0 0 
179 4 26 17.7392 4.08988 11 0 0 0 
180 4 26 17.6199 5.02506 11 0 0 0 
181 4 26 17.6356 5.91362 11 0 0 0 
182 4 26 17.7771 6.75606 11 0 0 0 
183 4 26 18.0352 7.55284 11 0 0 0 
184 4 26 18.4004 8.30444 11 0 0 0 
185 4 26 18.8637 9.01134 11 0 0 0 
186 4 26 19.4158 9.67399 11 0 0 0 
187 4 26 20.0473 10.2929 11 0 0 0 
188 4 26 20.749 10.8685 11 0 0 0 
189 4 26 21.5117 11.4013 11 0 0 0 
190 4 26 22.3261 11.8918 11 0 0 0 
191 4 26 23.1829 12.3404 11 0 0 0 
192 4 26 24.0729 12.7476 11 0 0 0 
193 4 26 24.9868 13.1138 11 0 0 0 
194 4 26 25.9154 13.4397 11 0 0 0 
195 4 26 26.8493 13.7256 11 0 0 0 
196 4 26 27.7794 13.9719 11 0 0 0 
197 4 26 28.6964 14.1793 11 0 0 0 
198 4 26 29.591 14.3481 11 0 0 0 
199 4 26 30.454 14.4789 11 0 0 0 
200 4 26 31.276 14.572 11 0 0 0 
ITEM: TIMESTEP
20000
ITEM: NUMBER OF ATOMS
200
ITEM: BOX BOUNDS pp ff pp
0.0000000000000000e+00 4.0000000000000000e+01
0.0000000000000000e+00 8.0000000000000000e+01
0.0000000000000000e+00 1.2000000000000000e+01
ITEM: ATOMS id mol type x y z vx vy vz 
1 1 1 40 1 3 0 0 0 
2 1 2 39.8631 2.0499 2.94637 1.50336e-05 -1.35188e-05 0 
3 1 3 39.6299 3.04088 2.89575 3.26709e-05 -2.19533e-05 0 
4 1 4 39.3085 3.97785 2.84789 5.26716e-05 -2.57543e-05 0 
5 1 5 38.907 4.86576 2.80253 7.47953e-05 -2.53729e-05 0 
6 1 6 38.4335 5.70951 2.75943 9.88017e-05 -2.12601e-05 0 
7 1 7 37.8961 6.51405 2.71834 0.00012445 -1.38669e-05 0 
8 1 8 37.303 7.28429 2.67899 0.000151501 -3.64418e-06 0 
9 1 9 36.6622 8.02517 2.64114 0.000179713 8.95698e-06 0 
10 1 10 35.9818 8.74162 2.60455 0.000208846 2.34856e-05 0 
11 1 11 35.27 9.43855 2.56895 0.000238661 3.94907e-05 0 
12 1 12 34.5349 10.1209 2.53409 0.000268915 5.65213e-05 0 
13 1 13 33.7846 10.7936 2.49973 0.00029937 7.41264e-05 0 
14 1 14 33.0271 11.4616 2.46561 0.000329785 9.1855e-05 0 
15 1 15 32.2707 12.1297 2.43148 0.000359919 0.000109256 0 
16 1 16 31.5234 12.803 2.39708 0.000389533 0.000125879 0 
17 1 17 30.7934 13.4864 2.36218 0.000418385 0.000141272 0 
18 1 18 30.0887 14.1847 2.32651 0.000446235 0.000154985 0 
19 1 19 29.4174 14.903 2.28982 0.000472843 0.000166566 0 
20 1 20 28.7877 15.646 2.25186 0.000497969 0.000175565 0 
21 1 21 28.2077 16.4189 2.21238 0.000521373 0.00018153 0 
22 1 22 27.6855 17.2264 2.17113 0.000542813 0.000184011 0 
23 1 23 27.2292 18.0736 2.12786 0.00056205 0.000182557 0 
24 1 24 26.8469 18.9653 2.08231 0.000578843 0.000176716 0 
25 1 25 26.5467 19.9065 2.03423 0.000592952 0.000166038 0 
26 2 1 20 1 3 0 0 0 
27 2 2 19.5788 2.03946 3.22424 1.87995e-05 -1.11176e-05 0 
28 2 3 19.2323 3.06831 3.44618 3.05022e-05 -1.81674e-05 0 
29 2 4 18.9601 4.08339 3.66516 3.57781e-05 -2.15288e-05 0 
30 2 5 18.7613 5.08155 3.88049 3.52968e-05 -2.15816e-05 0 
31 2 6 18.6353 6.05961 4.09148 2.97283e-05 -1.87052e-05 0 
32 2 7 18.5815 7.01441 4.29745 1.97422e-05 -1.32792e-05 0 
33 2 8 18.5992 7.94278 4.49772 6.00859e-06 -5.6833e-06 0 
34 2 9 18.6878 8.84157 4.69161 -1.08029e-05 3.70307e-06 0 
35 2 10 18.8465 9.70762 4.87844 -3.00224e-05 1.45003e-05 0 
36 2 11 19.0748 10.5377 5.05752 -5.09802e-05 2.63288e-05 0 
37 2 12 19.3719 11.3288 5.22817 -7.30063e-05 3.8809e-05 0 
38 2 13 19.7372 12.0776 5.3897 -9.5431e-05 5.15613e-05 0 
39 2 14 20.1701 12.781 5.54144 -0.000117584 6.42062e-05 0 
40 2 15 20.6699 13.4358 5.68271 -0.000138797 7.6364e-05 0 
41 2 16 21.2359 14.0389 5.81281 -0.000158398 8.76553e-05 0 
42 2 17 21.8674 14.5871 5.93107 -0.000175719 9.77004e-05 0 
43 2 18 22.5639 15.0773 6.03681 -0.00019009 0.00010612 0 
44 2 19 23.3246 15.5062 6.12934 -0.00020084 0.000112534 0 
45 2 20 24.1489 15.8707 6.20797 -0.0002073 0.000116563 0 
46 2 21 25.0361 16.1677 6.27204 -0.0002088 0.000117828 0 
47 2 22 25.9855 16.394 6.32085 -0.00020467 0.000115948 0 
48 2 23 26.9966 16.5464 6.35372 -0.000194241 0.000110545 0 
49 2 24 28.0686 16.6217 6.36998 -0.000176842 0.000101239 0 
50 2 25 29.2009 16.6169 6.36893 -0.000151804 8.76503e-05 0 
51 3 1 40 1 11 0 0 0 
52 3 2 39.8631 2.0499 10.9464 1.50336e-05 -1.35188e-05 0 
53 3 3 39.6299 3.04088 10.8957 3.26709e-05 -2.19533e-05 0 
54 3 4 39.3085 3.97785 10.8479 5.26716e-05 -2.57543e-05 0 
55 3 5 38.907 4.86576 10.8025 7.47953e-05 -2.53729e-05 0 
56 3 6 38.4335 5.70951 10.7594 9.88017e-05 -2.12601e-05 0 
57 3 7 37.8961 6.51405 10.7183 0.00012445 -1.38669e-05 0 
58 3 8 37.303 7.28429 10.679 0.000151501 -3.64418e-06 0 
59 3 9 36.6622 8.02517 10.6411 0.000179713 8.95698e-06 0 
60 3 10 35.9818 8.74162 10.6045 0.000208846 2.34856e-05 0 
61 3 11 35.27 9.43855 10.5689 0.000238661 3.94907e-05 0 
62 3 12 34.5349 10.1209 10.5341 0.000268915 5.65213e-05 0 
63 3 13 33.7846 10.7936 10.4997 0.00029937 7.41264e-05 0 
64 3 14 33.0271 11.4616 10.4656 0.000329785 9.1855e-05 0 
65 3 15 32.2707 12.1297 10.4315 0.000359919 0.000109256 0 
66 3 16 31.5234 12.803 10.3971 0.000389533 0.000125879 0 
67 3 17 30.7934 13.4864 10.3622 0.000418385 0.000141272 0 
68 3 18 30.0887 14.1847 10.3265 0.000446235 0.000154985 0 
69 3 19 29.4174 14.903 10.2898 0.000472843 0.000166566 0 
70 3 20 28.7877 15.646 10.2519 0.000497969 0.000175565 0 
71 3 21 28.2077 16.4189 10.2124 0.000521373 0.00018153 0 
72 3 22 27.6855 17.2264 10.1711 0.000542813 0.000184011 0 
73 3 23 27.2292 18.0736 10.1279 0.00056205 0.000182557 0 
74 3 24 26.8469 18.9653 10.0823 0.000578843 0.000176716 0 
75 3 25 26.5467 19.9065 10.0342 0.000592952 0.000166038 0 
76 4 1 20 1 11 0 0 0 
77 4 2 19.5788 2.03946 11.2242 1.87995e-05 -1.11176e-05 0 
78 4 3 19.2323 3.06831 11.4462 3.05022e-05 -1.81674e-05 0 
79 4 4 18.9601 4.08339 11.6652 3.57781e-05 -2.15288e-05 0 
80 4 5 18.7613 5.08155 11.8805 3.52968e-05 -2.15816e-05 0 
81 4 6 18.6353 6.05961 0.0914778 2.97283e-05 -1.87052e-05 0 
82 4 7 18.5815 7.01441 0.297451 1.97422e-05 -1.32792e-05 0 
83 4 8 18.5992 7.94278 0.497724 6.00859e-06 -5.6833e-06 0 
84 4 9 18.6878 8.84157 0.691615 -1.08029e-05 3.70307e-06 0 
85 4 10 18.8465 9.70762 0.878441 -3.00224e-05 1.45003e-05 0 
86 4 11 19.0748 10.5377 1.05752 -5.09802e-05 2.63288e-05 0 
87 4 12 19.3719 11.3288 1.22817 -7.30063e-05 3.8809e-05 0 
88 4 13 19.7372 12.0776 1.3897 -9.5431e-05 5.15613e-05 0 
89 4 14 20.1701 12.781 1.54144 -0.000117584 6.42062e-05 0 
90 4 15 20.6699 13.4358 1.68271 -0.000138797 7.6364e-05 0 
91 4 16 21.2359 14.0389 1.81281 -0.000158398 8.76553e-05 0 
92 4 17 21.8674 14.5871 1.93107 -0.000175719 9.77004e-05 0 
93 4 18 22.5639 15.0773 2.03681 -0.00019009 0.00010612 0 
94 4 19 23.3246 15.5062 2.12934 -0.00020084 0.000112534 0 
95 4 20 24.1489 15.8707 2.20797 -0.0002073 0.000116563 0 
96 4 21 25.0361 16.1677 2.27204 -0.0002088 0.000117828 0 
97 4 22 25.9855 16.394 2.32085 -0.00020467 0.000115948 0 
98 4 23 26.9966 16.5464 2.35372 -0.000194241 0.000110545 0 
99 4 24 28.0686 16.6217 2.36998 -0.000176842 0.000101239 0 
100 4 25 29.2009 16.6169 2.36893 -0.000151804 8.76503e-05 0 
101 1 26 39 1 3 2.39337e-07 4.71074e-07 -5.27287e-07 
102 1 26 38.8295 2.00122 3.01331 -0.000205787 3.66968e-05 -0.000452844 
103 1 26 38.63 3.01685 3.07091 -0.000211816 8.82914e-05 -0.000390748 
104 1 26 38.3665 4.02877 3.16597 -0.000138443 1.64594e-05 8.3197e-06 
105 1 26 38.0168 5.01923 3.21746 -7.70342e-05 -0.000234099 3.99045e-05 
106 1 26 37.5652 5.97984 3.20535 -0.000465468 -0.000517291 -0.000130046 
107 1 26 37.09 6.93149 3.15066 -0.000552648 -0.000660532 -0.000209613 
108 1 26 36.6152 7.86577 3.0907 -0.000333537 -0.000595689 -3.95423e-05 
109 1 26 36.0951 8.73 3.04517 -2.53587e-05 -0.000340807 -8.15758e-05 
110 1 26 35.4649 9.51437 2.9726 0.000356111 -2.14279e-05 -0.000200185 
111 1 26 34.7577 10.2033 2.90909 0.000331642 0.00025978 -9.8776e-06 
112 1 26 34.0057 10.8625 2.88151 0.000127115 0.000415725 -6.67229e-05 
113 1 26 33.2612 11.5369 2.87082 -1.73415e-05 0.000331813 -0.000226621 
114 1 26 32.545 12.2286 2.86573 -3.19684e-05 0.000152247 -0.000100563 
115 1 26 31.822 12.9363 2.82892 1.06509e-05 -4.74111e-08 -0.000217602 
116 1 26 31.1174 13.6543 2.76741 0.000350188 5.85134e-05 -0.000283639 
117 1 26 30.4612 14.3532 2.70458 0.000808714 -7.51208e-05 -0.000166436 
118 1 26 29.8226 15.0689 2.64349 0.000860911 -0.00018541 2.52088e-05 
119 1 26 29.1974 15.8185 2.53697 0.000586481 7.71618e-05 1.30535e-05 
120 1 26 28.571 16.5834 2.38379 0.000377884 0.00017337 -9.70336e-05 
121 1 26 27.9474 17.3762 2.24162 0.00044511 0.000381505 -0.000344555 
122 1 26 27.3657 18.1766 2.13479 0.000688488 0.00044373 -0.000403506 
123 1 26 26.8751 18.9931 2.05567 0.000670545 0.000668863 -3.78651e-05 
124 1 26 26.446 19.849 1.98172 0.000822258 0.000721411 9.96957e-05 
125 1 26 26.032 20.7249 1.93234 0.000773907 0.000637622 -0.000164081 
126 2 26 19 1 3 -6.91637e-06 -5.57688e-06 1.27836e-07 
127 2 26 18.223 1.70457 3.08316 -0.00278782 0.000548799 0.00257 
128 2 26 18.04 3.40191 3.1819 -0.00182089 -0.00051053 0.000114291 
129 2 26 18.2885 4.2267 3.61573 -0.00250451 0.000555443 0.00390608 
130 2 26 18.3268 5.75772 3.96575 -0.000853419 0.00297472 0.00373755 
131 2 26 18.1216 6.51307 4.58769 0.00243108 0.00218589 0.000809908 
132 2 26 17.7949 7.15175 4.57197 0.00566879 0.00323703 -0.00461648 
133 2 26 17.8896 8.70146 4.39861 -0.000827566 -0.00108424 0.000413698 
134 2 26 18.3422 9.66787 4.00432 -0.000262088 0.00114296 -0.00213904 
135 2 26 18.3466 10.578 4.4783 -0.00214265 -0.000469286 0.00239452 
136 2 26 18.8439 11.276 4.71251 -0.000881453 -0.00372812 0.0029671 
137 2 26 19.0234 11.9494 5.50382 -0.00171819 -0.000226195 9.12395e-05 
138 2 26 18.9695 12.5007 5.4793 -0.00338898 0.00246901 0.000570617 
139 2 26 19.3775 12.9676 5.04734 -0.00136277 -4.53652e-05 -0.0022607 
140 2 26 20.4685 13.6909 4.46007 -0.00016237 0.00258654 0.00151916 
141 2 26 21.3848 14.5219 4.79952 0.000558276 0.00233696 -0.00519883 
142 2 26 22.3865 14.3399 5.45619 -0.000479471 -0.00240461 -0.00084049 
143 2 26 22.9921 14.2642 6.04818 -0.00231021 0.00372287 0.00351022 
144 2 26 23.4347 14.3711 6.54062 0.000290468 0.00458383 0.000155868 
145 2 26 23.7996 15.1139 6.91633 -0.000144394 0.000933194 -0.0026664 
146 2 26 25.182 15.372 7.05528 0.00028579 0.00124017 -3.76775e-05 
147 2 26 26.4598 15.9729 6.88746 0.00085976 0.000379162 -0.00259406 
148 2 26 27.4165 17.0291 7.13239 -0.00208777 -0.00230294 -0.00231679 
149 2 26 28.0367 17.6041 6.51136 0.00341656 -0.00136485 -0.00173264 
150 2 26 29.468 17.6879 6.34299 -0.00378419 -0.00295405 0.00178506 
151 3 26 39 1 11 2.39337e-07 4.71074e-07 -5.27287e-07 
152 3 26 38.8295 2.00122 11.0133 -0.000205787 3.66968e-05 -0.000452844 
153 3 26 38.63 3.01685 11.0709 -0.000211816 8.82914e-05 -0.000390748 
154 3 26 38.3665 4.02877 11.166 -0.000138443 1.64594e-05 8.3197e-06 
155 3 26 38.0168 5.01923 11.2175 -7.70342e-05 -0.000234099 3.99045e-05 
156 3 26 37.5652 5.97984 11.2053 -0.000465468 -0.000517291 -0.000130046 
157 3 26 37.09 6.93149 11.1507 -0.000552648 -0.000660532 -0.000209613 
158 3 26 36.6152 7.86577 11.0907 -0.000333537 -0.000595689 -3.95423e-05 
159 3 26 36.0951 8.73 11.0452 -2.53587e-05 -0.000340807 -8.15758e-05 
160 3 26 35.4649 9.51437 10.9726 0.000356111 -2.14279e-05 -0.000200185 
161 3 26 34.7577 10.2033 10.9091 0.000331642 0.00025978 -9.8776e-06 
162 3 26 34.0057 10.8625 10.8815 0.000127115 0.000415725 -6.67229e-05 
163 3 26 33.2612 11.5369 10.8708 -1.73415e-05 0.000331813 -0.000226621 
164 3 26 32.545 12.2286 10.8657 -3.19684e-05 0.000152247 -0.000100563 
165 3 26 31.822 12.9363 10.8289 1.06509e-05 -4.74111e-08 -0.000217602 
166 3 26 31.1174 13.6543 10.7674 0.000350188 5.85134e-05 -0.000283639 
167 3 26 30.4612 14.3532 10.7046 0.000808714 -7.51208e-05 -0.000166436 
168 3 26 29.8226 15.0689 10.6435 0.000860911 -0.00018541 2.52088e-05 
169 3 26 29.1974 15.8185 10.537 0.000586481 7.71618e-05 1.30535e-05 
170 3 26 28.571 16.5834 10.3838 0.000377884 0.00017337 -9.70336e-05 
171 3 26 27.9474 17.3762 10.2416 0.00044511 0.000381505 -0.000344555 
172 3 26 27.3657 18.1766 10.1348 0.000688488 0.00044373 -0.000403506 
173 3 26 26.8751 18.9931 10.0557 0.000670545 0.000668863 -3.78651e-05 
174 3 26 26.446 19.849 9.98172 0.000822258 0.000721411 9.96957e-05 
175 3 26 26.032 20.7249 9.93234 0.000773907 0.000637622 -0.000164081 
176 4 26 19 1 11 -6.91635e-06 -5.5769e-06 1.27847e-07 
177 4 26 18.223 1.70457 11.0832 -0.00278781 0.000548812 0.00257 
178 4 26 18.04 3.40191 11.1819 -0.00182088 -0.000510531 0.000114304 
179 4 26 18.2885 4.2267 11.6157 -0.00250452 0.000555453 0.00390606 
180 4 26 18.3268 5.75772 11.9658 -0.000853422 0.00297472 0.00373757 
181 4 26 18.1216 6.51306 0.587692 0.00243109 0.0021859 0.000809879 
182 4 26 17.7949 7.15175 0.571975 0.00566878 0.00323704 -0.00461648 
183 4 26 17.8896 8.70146 0.398615 -0.000827567 -0.00108426 0.000413697 
184 4 26 18.3422 9.66787 0.0043284 -0.000262082 0.00114299 -0.00213903 
185 4 26 18.3466 10.578 0.478308 -0.00214262 -0.000469299 0.00239454 
186 4 26 18.8439 11.276 0.712507 -0.000881433 -0.00372812 0.00296709 
187 4 26 19.0234 11.9494 1.50382 -0.0017182 -0.000226183 9.12657e-05 
188 4 26 18.9695 12.5007 1.4793 -0.00338896 0.00246899 0.000570646 
189 4 26 19.3775 12.9676 1.04734 -0.00136276 -4.53622e-05 -0.00226068 
190 4 26 20.4685 13.6909 0.460073 -0.000162375 0.00258654 0.00151915 
191 4 26 21.3848 14.5219 0.799517 0.00055828 0.00233699 -0.00519883 
192 4 26 22.3865 14.3399 1.45619 -0.000479469 -0.0024046 -0.000840433 
193 4 26 22.9921 14.2642 2.04819 -0.00231021 0.00372286 0.00351024 
194 4 26 23.4347 14.3711 2.54062 0.000290471 0.00458383 0.000155846 
195 4 26 23.7996 15.1139 2.91633 -0.000144363 0.000933176 -0.00266639 
196 4 26 25.182 15.372 3.05528 0.000285766 0.00124012 -3.76659e-05 
197 4 26 26.4598 15.9729 2.88746 0.000859741 0.000379163 -0.0025941 
198 4 26 27.4165 17.0291 3.13239 -0.00208772 -0.00230296 -0.00231674 
199 4 26 28.0367 17.6041 2.51135 0.00341656 -0.00136488 -0.0017327 
200 4 26 29.468 17.6879 2.34299 -0.00378411 -0.00295407 0.00178515 
ITEM: TIMESTEP
40000
ITEM: NUMBER OF ATOMS
200
ITEM: BOX BOUNDS pp ff pp
0.0000000000000000e+00 4.0000000000000000e+01
0.0000000000000000e+00 8.0000000000000000e+01
0.0000000000000000e+00 1.2000000000000000e+01
ITEM: ATOMS id mol type x y z vx vy vz 
1 1 1 0 1 3 0 0 0 
2 1 2 39.7115 1.9533 2.92111 -1.92545e-05 8.14245e-06 0 
3 1 3 39.4554 2.90671 2.84221 -3.17967e-05 1.62372e-05 0 
4 1 4 39.2301 3.86 2.76332 -3.80799e-05 2.42935e-05 0 
5 1 5 39.0342 4.81298 2.68446 -3.85575e-05 3.23205e-05 0 
6 1 6 38.8662 5.76543 2.60564 -3.36827e-05 4.03273e-05 0 
7 1 7 38.7245 6.71716 2.52688 -2.3909e-05 4.83231e-05 0 
8 1 8 38.6076 7.66794 2.4482 -9.6896e-06 5.6317e-05 0 
9 1 9 38.514 8.61758 2.36961 8.52213e-06 6.43182e-05 0 
10 1 10 38.4423 9.56586 2.29114 3.02729e-05 7.2336e-05 0 
11 1 11 38.3909 10.5126 2.21279 5.51093e-05 8.03793e-05 0 
12 1 12 38.3583 11.4575 2.1346 8.2578e-05 8.84574e-05 0 
13 1 13 38.3431 12.4005 2.05656 0.000112226 9.65795e-05 0 
14 1 14 38.3436 13.3413 1.97871 0.000143599 0.000104755 0 
15 1 15 38.3584 14.2797 1.90105 0.000176245 0.000112992 0 
16 1 16 38.386 15.2155 1.82361 0.00020971 0.000121301 0 
17 1 17 38.4249 16.1485 1.7464 0.000243541 0.000129691 0 
18 1 18 38.4736 17.0785 1.66944 0.000277284 0.00013817 0 
19 1 19 38.5305 18.0053 1.59275 0.000310486 0.000146748 0 
20 1 20 38.5942 18.9286 1.51634 0.000342693 0.000155435 0 
21 1 21 38.6631 19.8483 1.44023 0.000373453 0.000164238 0 
22 1 22 38.7358 20.7641 1.36444 0.000402313 0.000173168 0 
23 1 23 38.8108 21.6759 1.28898 0.000428818 0.000182234 0 
24 1 24 38.8865 22.5835 1.21388 0.000452515 0.000191444 0 
25 1 25 38.9614 23.4865 1.13915 0.000472951 0.000200808 0 
26 2 1 20 1 3 0 0 0 
27 2 2 19.7247 1.85012 3.21575 -1.8425e-06 -1.95001e-06 0 
28 2 3 19.4273 2.73208 3.43958 -6.85287e-06 -4.46929e-06 0 
29 2 4 19.1168 3.63947 3.66987 -1.47172e-05 -7.4318e-06 0 
30 2 5 18.8021 4.56587 3.90498 -2.51217e-05 -1.07115e-05 0 
31 2 6 18.4923 5.50485 4.14328 -3.77523e-05 -1.41823e-05 0 
32 2 7 18.1962 6.45001 4.38315 -5.22953e-05 -1.77181e-05 0 
33 2 8 17.9228 7.39492 4.62296 -6.84368e-05 -2.11929e-05 0 
34 2 9 17.6811 8.33317 4.86108 -8.58629e-05 -2.44807e-05 0 
35 2 10 17.48 9.25835 5.09588 -0.00010426 -2.74554e-05 0 
36 2 11 17.3285 10.164 5.32573 -0.000123313 -2.99909e-05 0 
37 2 12 17.2355 11.0438 5.549 -0.00014271 -3.19612e-05 0 
38 2 13 17.21 11.8912 5.76407 -0.000162135 -3.32402e-05 0 
39 2 14 17.2609 12.6999 5.96931 -0.000181276 -3.37018e-05 0 
40 2 15 17.3972 13.4634 6.16308 -0.000199818 -3.32201e-05 0 
41 2 16 17.6279 14.1754 6.34376 -0.000217447 -3.16689e-05 0 
42 2 17 17.9618 14.8293 6.50972 -0.00023385 -2.89222e-05 0 
43 2 18 18.408 15.4188 6.65934 -0.000248713 -2.4854e-05 0 
44 2 19 18.9753 15.9375 6.79097 -0.000261721 -1.93381e-05 0 
45 2 20 19.6728 16.3789 6.903 -0.000272561 -1.22486e-05 0 
46 2 21 20.5094 16.7367 6.9938 -0.000280919 -3.45934e-06 0 
47 2 22 21.4941 17.0043 7.06173 -0.000286481 7.1557e-06 0 
48 2 23 22.6358 17.1755 7.10517 -0.000288934 1.97226e-05 0 
49 2 24 23.9434 17.2438 7.12249 -0.000287963 3.43674e-05 0 
50 2 25 25.426 17.2027 7.11206 -0.000283254 5.12161e-05 0 
51 3 1 0 1 11 0 0 0 
52 3 2 39.7115 1.9533 10.9211 -1.92545e-05 8.14245e-06 0 
53 3 3 39.4554 2.90671 10.8422 -3.17967e-05 1.62372e-05 0 
54 3 4 39.2301 3.86 10.7633 -3.80799e-05 2.42935e-05 0 
55 3 5 39.0342 4.81298 10.6845 -3.85575e-05 3.23205e-05 0 
56 3 6 38.8662 5.76543 10.6056 -3.36827e-05 4.03273e-05 0 
57 3 7 38.7245 6.71716 10.5269 -2.3909e-05 4.83231e-05 0 
58 3 8 38.6076 7.66794 10.4482 -9.6896e-06 5.6317e-05 0 
59 3 9 38.514 8.61758 10.3696 8.52213e-06 6.43182e-05 0 
60 3 10 38.4423 9.56586 10.2911 3.02729e-05 7.2336e-05 0 
61 3 11 38.3909 10.5126 10.2128 5.51093e-05 8.03793e-05 0 
62 3 12 38.3583 11.4575 10.1346 8.2578e-05 8.84574e-05 0 
63 3 13 38.3431 12.4005 10.0566 0.000112226 9.65795e-05 0 
64 3 14 38.3436 13.3413 9.97871 0.000143599 0.000104755 0 
65 3 15 38.3584 14.2797 9.90105 0.000176245 0.000112992 0 
66 3 16 38.386 15.2155 9.82361 0.00020971 0.000121301 0 
67 3 17 38.4249 16.1485 9.7464 0.000243541 0.000129691 0 
68 3 18 38.4736 17.0785 9.66944 0.000277284 0.00013817 0 
69 3 19 38.5305 18.0053 9.59275 0.000310486 0.000146748 0 
70 3 20 38.5942 18.9286 9.51634 0.000342693 0.000155435 0 
71 3 21 38.6631 19.8483 9.44023 0.000373453 0.000164238 0 
72 3 22 38.7358 20.7641 9.36444 0.000402313 0.000173168 0 
73 3 23 38.8108 21.6759 9.28898 0.000428818 0.000182234 0 
74 3 24 38.8865 22.5835 9.21388 0.000452515 0.000191444 0 
75 3 25 38.9614 23.4865 9.13915 0.000472951 0.000200808 0 
76 4 1 20 1 11 0 0 0 
77 4 2 19.7247 1.85012 11.2158 -1.8425e-06 -1.95001e-06 0 
78 4 3 19.4273 2.73208 11.4396 -6.85287e-06 -4.46929e-06 0 
79 4 4 19.1168 3.63947 11.6699 -1.47172e-05 -7.4318e-06 0 
80 4 5 18.8021 4.56587 11.905 -2.51217e-05 -1.07115e-05 0 
81 4 6 18.4923 5.50485 0.143282 -3.77523e-05 -1.41823e-05 0 
82 4 7 18.1962 6.45001 0.383153 -5.22953e-05 -1.77181e-05 0 
83 4 8 17.9228 7.39492 0.622962 -6.84368e-05 -2.11929e-05 0 
84 4 9 17.6811 8.33317 0.86108 -8.58629e-05 -2.44807e-05 0 
85 4 10 17.48 9.25835 1.09588 -0.00010426 -2.74554e-05 0 
86 4 11 17.3285 10.164 1.32573 -0.000123313 -2.99909e-05 0 
87 4 12 17.2355 11.0438 1.549 -0.00014271 -3.19612e-05 0 
88 4 13 17.21 11.8912 1.76407 -0.000162135 -3.32402e-05 0 
89 4 14 17.2609 12.6999 1.96931 -0.000181276 -3.37018e-05 0 
90 4 15 17.3972 13.4634 2.16308 -0.000199818 -3.32201e-05 0 
91 4 16 17.6279 14.1754 2.34376 -0.000217447 -3.16689e-05 0 
92 4 17 17.9618 14.8293 2.50972 -0.00023385 -2.89222e-05 0 
93 4 18 18.408 15.4188 2.65934 -0.000248713 -2.4854e-05 0 
94 4 19 18.9753 15.9375 2.79097 -0.000261721 -1.93381e-05 0 
95 4 20 19.6728 16.3789 2.903 -0.000272561 -1.22486e-05 0 
96 4 21 20.5094 16.7367 2.9938 -0.000280919 -3.45934e-06 0 
97 4 22 21.4941 17.0043 3.06173 -0.000286481 7.1557e-06 0 
98 4 23 22.6358 17.1755 3.10517 -0.000288934 1.97226e-05 0 
99 4 24 23.9434 17.2438 3.12249 -0.000287963 3.43674e-05 0 
100 4 25 25.426 17.2027 3.11206 -0.000283254 5.12161e-05 0 
101 1 26 39 1 3 -4.59853e-07 1.16932e-06 -1.47118e-06 
102 1 26 38.758 1.96971 2.63778 0.000161147 -0.000191159 7.05835e-05 
103 1 26 38.5407 2.89619 2.37683 -3.73688e-05 -0.000190135 -7.5576e-05 
104 1 26 38.3814 3.84589 2.1627 4.9101e-05 -0.000370758 -0.000160555 
105 1 26 38.2724 4.77562 1.99871 0.000170581 -0.000344581 3.66383e-05 
106 1 26 38.2129 5.70637 1.8382 0.000307875 -5.63694e-05 -6.2769e-05 
107 1 26 38.2185 6.6284 1.65774 0.00015674 8.1086e-05 0.000176079 
108 1 26 38.2268 7.60734 1.49068 0.000190014 0.000354661 2.41299e-05 
109 1 26 38.1336 8.60767 1.39892 0.000467537 0.000390546 -3.04844e-05 
110 1 26 37.9373 9.64562 1.42953 0.000453291 0.00011113 -0.000218259 
111 1 26 37.7467 10.676 1.53149 0.000334855 -0.000123891 -0.000609678 
112 1 26 37.5734 11.6782 1.62713 0.000350169 5.87322e-05 -0.000748386 
113 1 26 37.4439 12.6435 1.72313 0.000187394 0.000362043 -0.000444036 
114 1 26 37.3569 13.5633 1.80291 1.34764e-05 0.000430026 -0.000311098 
115 1 26 37.3161 14.4818 1.88274 -9.77854e-06 0.000223055 -2.64996e-05 
116 1 26 37.3521 15.4429 1.91015 -0.000108932 0.000229577 8.32612e-05 
117 1 26 37.4377 16.4461 1.83503 0.000251886 8.49816e-06 0.000130259 
118 1 26 37.5209 17.4554 1.69786 0.000600364 0.000224974 0.000136908 
119 1 26 37.6263 18.4427 1.5489 0.000721707 0.000338983 0.000132984 
120 1 26 37.7535 19.457 1.39502 0.00044257 0.0003442 0.000186283 
121 1 26 37.9272 20.4757 1.20626 0.000155715 0.000159762 7.08865e-05 
122 1 26 38.1323 21.4598 1.00847 0.000152814 9.12261e-05 -8.87523e-05 
123 1 26 38.3359 22.4326 0.845175 0.000445558 8.39073e-05 -4.40753e-05 
124 1 26 38.5398 23.4357 0.781723 0.00048105 0.000398636 0.000153899 
125 1 26 38.7125 24.4151 0.794721 0.00017193 0.000446071 -0.000131555 
126 2 26 19 1 3 6.02018e-06 1.43923e-05 2.16089e-08 
127 2 26 19.6749 2.42616 3.15032 0.00123042 -0.00209922 0.00204526 
128 2 26 20.2396 3.38101 3.4641 -0.00571269 -0.000689701 0.00123253 
129 2 26 20.1353 3.90345 3.3893 0.00239871 -0.0019431 -0.00142162 
130 2 26 19.7736 4.69602 3.45537 0.00162409 -0.00123992 0.000548127 
131 2 26 19.0579 5.44125 3.50383 0.00243269 0.000366343 0.0028611 
132 2 26 18.2704 5.85163 3.84714 0.00187021 0.000184288 0.0038208 
133 2 26 17.8039 6.42131 4.165 -0.00405539 0.00397054 0.002538 
134 2 26 17.1337 7.82331 4.39464 -0.00341491 0.00303021 -0.00133439 
135 2 26 16.7075 8.2732 4.96748 -0.00175081 0.00160766 -0.000681209 
136 2 26 16.6404 9.10807 5.74386 -0.00153914 -0.000118261 -0.00239576 
137 2 26 16.7053 10.3537 5.87957 0.00294802 0.00330456 -0.00111406 
138 2 26 16.5508 11.6549 5.10254 -0.000979414 0.00180356 -0.00516541 
139 2 26 16.5547 12.3512 5.14797 0.00253336 0.00135469 -0.000230803 
140 2 26 17.0099 13.1896 5.2968 0.00279923 -0.00207833 -0.00085981 
141 2 26 17.3935 13.5875 5.56489 0.00283345 -0.00112351 -0.000216279 
142 2 26 18.5541 14.3633 5.63902 -0.00143367 0.00220335 0.00104706 
143 2 26 19.8924 14.7574 6.04328 -0.00427255 -0.00024738 -0.00279723 
144 2 26 20.079 15.801 6.42122 -0.00196342 0.00233232 -0.0012799 
145 2 26 20.6452 16.9559 6.36171 -0.00114554 -0.00285286 -0.00163231 
146 2 26 21.2077 17.5677 6.60971 -0.000276751 -0.000803709 -0.00200525 
147 2 26 23.1211 17.2542 7.01672 -0.00179594 -1.32208e-05 0.00134251 
148 2 26 23.5813 16.693 7.06082 -0.00299368 -0.000236871 -0.00163858 
149 2 26 24.6506 17.0574 7.71654 -0.00138571 -0.000373087 0.00025691 
150 2 26 25.0737 17.1407 8.24356 0.00149047 0.000291796 -0.00515216 
151 3 26 39 1 11 -4.59853e-07 1.16932e-06 -1.47118e-06 
152 3 26 38.758 1.96971 10.6378 0.000161147 -0.000191159 7.05835e-05 
153 3 26 38.5407 2.89619 10.3768 -3.73688e-05 -0.000190135 -7.5576e-05 
154 3 26 38.3814 3.84589 10.1627 4.9101e-05 -0.000370758 -0.000160555 
155 3 26 38.2724 4.77562 9.99871 0.000170581 -0.000344581 3.66383e-05 
156 3 26 38.2129 5.70637 9.8382 0.000307875 -5.63694e-05 -6.2769e-05 
157 3 26 38.2185 6.6284 9.65774 0.00015674 8.1086e-05 0.000176079 
158 3 26 38.2268 7.60734 9.49068 0.000190014 0.000354661 2.41299e-05 
159 3 26 38.1336 8.60767 9.39892 0.000467537 0.000390546 -3.04844e-05 
160 3 26 37.9373 9.64562 9.42953 0.000453291 0.00011113 -0.000218259 
161 3 26 37.7467 10.676 9.53149 0.000334855 -0.000123891 -0.000609678 