Lammps input script
200 atoms
26 atom types
292 bonds
4 bond types
92 angles
1 angle types


0 4.000000e+01 xlo xhi
0 80 ylo yhi
0 12 zlo zhi


Masses

1 0.001885
2 0.001885
3 0.001885
4 0.001885
5 0.001885
6 0.001885
7 0.001885
8 0.001885
9 0.001885
10 0.001885
11 0.001885
12 0.001885
13 0.001885
14 0.001885
15 0.001885
16 0.001885
17 0.001885
18 0.001885
19 0.001885
20 0.001885
21 0.001885
22 0.001885
23 0.001885
24 0.001885
25 0.001885
26 0.001885


Bond Coeffs

1 5.000000e-08 1.000000
2 5.000000e-08 1.000000
3 5.000000e-08 1.414214
4 5.000000e-08 1.000000


Angle Coeffs

1 2.400000e-08 180.000000


Atoms

1 1 1 0.000000 1.000000 3.000000
2 1 2 39.592835 2.097187 3.000000
3 1 3 39.094181 3.086826 3.000000
4 1 4 38.512797 3.978039 3.000000
5 1 5 37.857444 4.779944 3.000000
6 1 6 37.136884 5.501662 3.000000
7 1 7 36.359875 6.152313 3.000000
8 1 8 35.535179 6.741015 3.000000
9 1 9 34.671556 7.276889 3.000000
10 1 10 33.777766 7.769055 3.000000
11 1 11 32.862569 8.226632 3.000000
12 1 12 31.934727 8.658740 3.000000
13 1 13 31.003000 9.074500 3.000000
14 1 14 30.076148 9.483030 3.000000
15 1 15 29.162931 9.893451 3.000000
16 1 16 28.272109 10.314883 3.000000
17 1 17 27.412444 10.756444 3.000000
18 1 18 26.592696 11.227256 3.000000
19 1 19 25.821625 11.736438 3.000000
20 1 20 25.107991 12.293109 3.000000
21 1 21 24.460556 12.906389 3.000000
22 1 22 23.888078 13.585398 3.000000
23 1 23 23.399319 14.339257 3.000000
24 1 24 23.003040 15.177084 3.000000
25 1 25 22.708000 16.108000 3.000000
26 2 1 20.000000 1.000000 3.000000
27 2 2 19.419998 2.077829 3.000000
28 2 3 19.002819 3.107632 3.000000
29 2 4 18.739203 4.089883 3.000000
30 2 5 18.619889 5.025056 3.000000
31 2 6 18.635616 5.913624 3.000000
32 2 7 18.777125 6.756063 3.000000
33 2 8 19.035155 7.552845 3.000000
34 2 9 19.400444 8.304444 3.000000
35 2 10 19.863734 9.011336 3.000000
36 2 11 20.415764 9.673993 3.000000
37 2 12 21.047273 10.292890 3.000000
38 2 13 21.749000 10.868500 3.000000
39 2 14 22.511686 11.401298 3.000000
40 2 15 23.326069 11.891757 3.000000
41 2 16 24.182891 12.340352 3.000000
42 2 17 25.072889 12.747556 3.000000
43 2 18 25.986804 13.113843 3.000000
44 2 19 26.915375 13.439687 3.000000
45 2 20 27.849342 13.725563 3.000000
46 2 21 28.779444 13.971944 3.000000
47 2 22 29.696422 14.179305 3.000000
48 2 23 30.591014 14.348118 3.000000
49 2 24 31.453960 14.478859 3.000000
50 2 25 32.276000 14.572000 3.000000
51 3 1 0.000000 1.000000 11.000000
52 3 2 39.592835 2.097187 11.000000
53 3 3 39.094181 3.086826 11.000000
54 3 4 38.512797 3.978039 11.000000
55 3 5 37.857444 4.779944 11.000000
56 3 6 37.136884 5.501662 11.000000
57 3 7 36.359875 6.152313 11.000000
58 3 8 35.535179 6.741015 11.000000
59 3 9 34.671556 7.276889 11.000000
60 3 10 33.777766 7.769055 11.000000
61 3 11 32.862569 8.226632 11.000000
62 3 12 31.934727 8.658740 11.000000
63 3 13 31.003000 9.074500 11.000000
64 3 14 30.076148 9.483030 11.000000
65 3 15 29.162931 9.893451 11.000000
66 3 16 28.272109 10.314883 11.000000
67 3 17 27.412444 10.756444 11.000000
68 3 18 26.592696 11.227256 11.000000
69 3 19 25.821625 11.736438 11.000000
70 3 20 25.107991 12.293109 11.000000
71 3 21 24.460556 12.906389 11.000000
72 3 22 23.888078 13.585398 11.000000
73 3 23 23.399319 14.339257 11.000000
74 3 24 23.003040 15.177084 11.000000
75 3 25 22.708000 16.108000 11.000000
76 4 1 20.000000 1.000000 11.000000
77 4 2 19.419998 2.077829 11.000000
78 4 3 19.002819 3.107632 11.000000
79 4 4 18.739203 4.089883 11.000000
80 4 5 18.619889 5.025056 11.000000
81 4 6 18.635616 5.913624 11.000000
82 4 7 18.777125 6.756063 11.000000
83 4 8 19.035155 7.552845 11.000000
84 4 9 19.400444 8.304444 11.000000
85 4 10 19.863734 9.011336 11.000000
86 4 11 20.415764 9.673993 11.000000
87 4 12 21.047273 10.292890 11.000000
88 4 13 21.749000 10.868500 11.000000
89 4 14 22.511686 11.401298 11.000000
90 4 15 23.326069 11.891757 11.000000
91 4 16 24.182891 12.340352 11.000000
92 4 17 25.072889 12.747556 11.000000
93 4 18 25.986804 13.113843 11.000000
94 4 19 26.915375 13.439687 11.000000
95 4 20 27.849342 13.725563 11.000000
96 4 21 28.779444 13.971944 11.000000
97 4 22 29.696422 14.179305 11.000000
98 4 23 30.591014 14.348118 11.000000
99 4 24 31.453960 14.478859 11.000000
100 4 25 32.276000 14.572000 11.000000
101 1 26 39.000000 1.000000 3.000000
102 1 26 38.592835 2.097187 3.000000
103 1 26 38.094181 3.086826 3.000000
104 1 26 37.512797 3.978039 3.000000
105 1 26 36.857444 4.779944 3.000000
106 1 26 36.136884 5.501662 3.000000
107 1 26 35.359875 6.152313 3.000000
108 1 26 34.535179 6.741015 3.000000
109 1 26 33.671556 7.276889 3.000000
110 1 26 32.777766 7.769055 3.000000
111 1 26 31.862569 8.226632 3.000000
112 1 26 30.934727 8.658740 3.000000
113 1 26 30.003000 9.074500 3.000000
114 1 26 29.076148 9.483030 3.000000
115 1 26 28.162931 9.893451 3.000000
116 1 26 27.272109 10.314883 3.000000
117 1 26 26.412444 10.756444 3.000000
118 1 26 25.592696 11.227256 3.000000
119 1 26 24.821625 11.736438 3.000000
120 1 26 24.107991 12.293109 3.000000
121 1 26 23.460556 12.906389 3.000000
122 1 26 22.888078 13.585398 3.000000
123 1 26 22.399319 14.339257 3.000000
124 1 26 22.003040 15.177084 3.000000
125 1 26 21.708000 16.108000 3.000000
126 2 26 19.000000 1.000000 3.000000
127 2 26 18.419998 2.077829 3.000000
128 2 26 18.002819 3.107632 3.000000
129 2 26 17.739203 4.089883 3.000000
130 2 26 17.619889 5.025056 3.000000
131 2 26 17.635616 5.913624 3.000000
132 2 26 17.777125 6.756063 3.000000
133 2 26 18.035155 7.552845 3.000000
134 2 26 18.400444 8.304444 3.000000
135 2 26 18.863734 9.011336 3.000000
136 2 26 19.415764 9.673993 3.000000
137 2 26 20.047273 10.292890 3.000000
138 2 26 20.749000 10.868500 3.000000
139 2 26 21.511686 11.401298 3.000000
140 2 26 22.326069 11.891757 3.000000
141 2 26 23.182891 12.340352 3.000000
142 2 26 24.072889 12.747556 3.000000
143 2 26 24.986804 13.113843 3.000000
144 2 26 25.915375 13.439687 3.000000
145 2 26 26.849342 13.725563 3.000000
146 2 26 27.779444 13.971944 3.000000
147 2 26 28.696422 14.179305 3.000000
148 2 26 29.591014 14.348118 3.000000
149 2 26 30.453960 14.478859 3.000000
150 2 26 31.276000 14.572000 3.000000
151 3 26 39.000000 1.000000 11.000000
152 3 26 38.592835 2.097187 11.000000
153 3 26 38.094181 3.086826 11.000000
154 3 26 37.512797 3.978039 11.000000
155 3 26 36.857444 4.779944 11.000000
156 3 26 36.136884 5.501662 11.000000
157 3 26 35.359875 6.152313 11.000000
158 3 26 34.535179 6.741015 11.000000
159 3 26 33.671556 7.276889 11.000000
160 3 26 32.777766 7.769055 11.000000
161 3 26 31.862569 8.226632 11.000000
162 3 26 30.934727 8.658740 11.000000
163 3 26 30.003000 9.074500 11.000000
164 3 26 29.076148 9.483030 11.000000
165 3 26 28.162931 9.893451 11.000000
166 3 26 27.272109 10.314883 11.000000
167 3 26 26.412444 10.756444 11.000000
168 3 26 25.592696 11.227256 11.000000
169 3 26 24.821625 11.736438 11.000000
170 3 26 24.107991 12.293109 11.000000
171 3 26 23.460556 12.906389 11.000000
172 3 26 22.888078 13.585398 11.000000
173 3 26 22.399319 14.339257 11.000000
174 3 26 22.003040 15.177084 11.000000
175 3 26 21.708000 16.108000 11.000000
176 4 26 19.000000 1.000000 11.000000
177 4 26 18.419998 2.077829 11.000000
178 4 26 18.002819 3.107632 11.000000
179 4 26 17.739203 4.089883 11.000000
180 4 26 17.619889 5.025056 11.000000
181 4 26 17.635616 5.913624 11.000000
182 4 26 17.777125 6.756063 11.000000
183 4 26 18.035155 7.552845 11.000000
184 4 26 18.400444 8.304444 11.000000
185 4 26 18.863734 9.011336 11.000000
186 4 26 19.415764 9.673993 11.000000
187 4 26 20.047273 10.292890 11.000000
188 4 26 20.749000 10.868500 11.000000
189 4 26 21.511686 11.401298 11.000000
190 4 26 22.326069 11.891757 11.000000
191 4 26 23.182891 12.340352 11.000000
192 4 26 24.072889 12.747556 11.000000
193 4 26 24.986804 13.113843 11.000000
194 4 26 25.915375 13.439687 11.000000
195 4 26 26.849342 13.725563 11.000000
196 4 26 27.779444 13.971944 11.000000
197 4 26 28.696422 14.179305 11.000000
198 4 26 29.591014 14.348118 11.000000
199 4 26 30.453960 14.478859 11.000000
200 4 26 31.276000 14.572000 11.000000
Bonds

1 1 1 2
2 1 2 3
3 1 3 4
4 1 4 5
5 1 5 6
6 1 6 7
7 1 7 8
8 1 8 9
9 1 9 10
10 1 10 11
11 1 11 12
12 1 12 13
13 1 13 14
14 1 14 15
15 1 15 16
16 1 16 17
17 1 17 18
18 1 18 19
19 1 19 20
20 1 20 21
21 1 21 22
22 1 22 23
23 1 23 24
24 1 24 25
25 1 26 27
26 1 27 28
27 1 28 29
28 1 29 30
29 1 30 31
30 1 31 32
31 1 32 33
32 1 33 34
33 1 34 35
34 1 35 36
35 1 36 37
36 1 37 38
37 1 38 39
38 1 39 40
39 1 40 41
40 1 41 42
41 1 42 43
42 1 43 44
43 1 44 45
44 1 45 46
45 1 46 47
46 1 47 48
47 1 48 49
48 1 49 50
49 1 51 52
50 1 52 53
51 1 53 54
52 1 54 55
53 1 55 56
54 1 56 57
55 1 57 58
56 1 58 59
57 1 59 60
58 1 60 61
59 1 61 62
60 1 62 63
61 1 63 64
62 1 64 65
63 1 65 66
64 1 66 67
65 1 67 68
66 1 68 69
67 1 69 70
68 1 70 71
69 1 71 72
70 1 72 73
71 1 73 74
72 1 74 75
73 1 76 77
74 1 77 78
75 1 78 79
76 1 79 80
77 1 80 81
78 1 81 82
79 1 82 83
80 1 83 84
81 1 84 85
82 1 85 86
83 1 86 87
84 1 87 88
85 1 88 89
86 1 89 90
87 1 90 91
88 1 91 92
89 1 92 93
90 1 93 94
91 1 94 95
92 1 95 96
93 1 96 97
94 1 97 98
95 1 98 99
96 1 99 100
97 2 1 101
98 4 101 102
99 2 2 102
100 4 102 103
101 2 3 103
102 4 103 104
103 2 4 104
104 4 104 105
105 2 5 105
106 4 105 106
107 2 6 106
108 4 106 107
109 2 7 107
110 4 107 108
111 2 8 108
112 4 108 109
113 2 9 109
114 4 109 110
115 2 10 110
116 4 110 111
117 2 11 111
118 4 111 112
119 2 12 112
120 4 112 113
121 2 13 113
122 4 113 114
123 2 14 114
124 4 114 115
125 2 15 115
126 4 115 116
127 2 16 116
128 4 116 117
129 2 17 117
130 4 117 118
131 2 18 118
132 4 118 119
133 2 19 119
134 4 119 120
135 2 20 120
136 4 120 121
137 2 21 121
138 4 121 122
139 2 22 122
140 4 122 123
141 2 23 123
142 4 123 124
143 2 24 124
144 4 124 125
145 2 25 125
146 2 26 126
147 4 126 127
148 2 27 127
149 4 127 128
150 2 28 128
151 4 128 129
152 2 29 129
153 4 129 130
154 2 30 130
155 4 130 131
156 2 31 131
157 4 131 132
158 2 32 132
159 4 132 133
160 2 33 133
161 4 133 134
162 2 34 134
163 4 134 135
164 2 35 135
165 4 135 136
166 2 36 136
167 4 136 137
168 2 37 137
169 4 137 138
170 2 38 138
171 4 138 139
172 2 39 139
173 4 139 140
174 2 40 140
175 4 140 141
176 2 41 141
177 4 141 142
178 2 42 142
179 4 142 143
180 2 43 143
181 4 143 144
182 2 44 144
183 4 144 145
184 2 45 145
185 4 145 146
186 2 46 146
187 4 146 147
188 2 47 147
189 4 147 148
190 2 48 148
191 4 148 149
192 2 49 149
193 4 149 150
194 2 50 150
195 2 51 151
196 4 151 152
197 2 52 152
198 4 152 153
199 2 53 153
200 4 153 154
201 2 54 154
202 4 154 155
203 2 55 155
204 4 155 156
205 2 56 156
206 4 156 157
207 2 57 157
208 4 157 158
209 2 58 158
210 4 158 159
211 2 59 159
212 4 159 160
213 2 60 160
214 4 160 161
215 2 61 161
216 4 161 162
217 2 62 162
218 4 162 163
219 2 63 163
220 4 163 164
221 2 64 164
222 4 164 165
223 2 65 165
224 4 165 166
225 2 66 166
226 4 166 167
227 2 67 167
228 4 167 168
229 2 68 168
230 4 168 169
231 2 69 169
232 4 169 170
233 2 70 170
234 4 170 171
235 2 71 171
236 4 171 172
237 2 72 172
238 4 172 173
239 2 73 173
240 4 173 174
241 2 74 174
242 4 174 175
243 2 75 175
244 2 76 176
245 4 176 177
246 2 77 177
247 4 177 178
248 2 78 178
249 4 178 179
250 2 79 179
251 4 179 180
252 2 80 180
253 4 180 181
254 2 81 181
255 4 181 182
256 2 82 182
257 4 182 183
258 2 83 183
259 4 183 184
260 2 84 184
261 4 184 185
262 2 85 185
263 4 185 186
264 2 86 186
265 4 186 187
266 2 87 187
267 4 187 188
268 2 88 188
269 4 188 189
270 2 89 189
271 4 189 190
272 2 90 190
273 4 190 191
274 2 91 191
275 4 191 192
276 2 92 192
277 4 192 193
278 2 93 193
279 4 193 194
280 2 94 194
281 4 194 195
282 2 95 195
283 4 195 196
284 2 96 196
285 4 196 197
286 2 97 197
287 4 197 198
288 2 98 198
289 4 198 199
290 2 99 199
291 4 199 200
292 2 100 200
Angles 

1 1 101 102 103
2 1 102 103 104
3 1 103 104 105
4 1 104 105 106
5 1 105 106 107
6 1 106 107 108
7 1 107 108 109
8 1 108 109 110
9 1 109 110 111
10 1 110 111 112
11 1 111 112 113
12 1 112 113 114
13 1 113 114 115
14 1 114 115 116
15 1 115 116 117
16 1 116 117 118
17 1 117 118 119
18 1 118 119 120
19 1 119 120 121
20 1 120 121 122
21 1 121 122 123
22 1 122 123 124
23 1 123 124 125
24 1 126 127 128
25 1 127 128 129
26 1 128 129 130
27 1 129 130 131
28 1 130 131 132
29 1 131 132 133
30 1 132 133 134
31 1 133 134 135
32 1 134 135 136
33 1 135 136 137
34 1 136 137 138
35 1 137 138 139
36 1 138 139 140
37 1 139 140 141
38 1 140 141 142
39 1 141 142 143
40 1 142 143 144
41 1 143 144 145
42 1 144 145 146
43 1 145 146 147
44 1 146 147 148
45 1 147 148 149
46 1 148 149 150
47 1 151 152 153
48 1 152 153 154
49 1 153 154 155
50 1 154 155 156
51 1 155 156 157
52 1 156 157 158
53 1 157 158 159
54 1 158 159 160
55 1 159 160 161
56 1 160 161 162
57 1 161 162 163
58 1 162 163 164
59 1 163 164 165
60 1 164 165 166
61 1 165 166 167
62 1 166 167 168
63 1 167 168 169
64 1 168 169 170
65 1 169 170 171
66 1 170 171 172
67 1 171 172 173
68 1 172 173 174
69 1 173 174 175
70 1 176 177 178
71 1 177 178 179
72 1 178 179 180
73 1 179 180 181
74 1 180 181 182
75 1 181 182 183
76 1 182 183 184
77 1 183 184 185
78 1 184 185 186
79 1 185 186 187
80 1 186 187 188
81 1 187 188 189
82 1 188 189 190
83 1 189 190 191
84 1 190 191 192
85 1 191 192 193
86 1 192 193 194
87 1 193 194 195
88 1 194 195 196
89 1 195 196 197
90 1 196 197 198
91 1 197 198 199
92 1 198 199 200
