ITEM: TIMESTEP
0
ITEM: NUMBER OF ATOMS
60
ITEM: BOX BOUNDS pp ff pp
0.0000000000000000e+00 4.0000000000000000e+01
0.0000000000000000e+00 8.0000000000000000e+01
0.0000000000000000e+00 1.2000000000000000e+01
ITEM: ATOMS id mol type x y z vx vy vz 
201 5 26 8 70 6 0 0 0 
202 6 26 11 72 9 0 0 0 
203 7 26 9 73 4 0 0 0 
204 8 26 11 74 3 0 0 0 
205 9 26 8 75 5 0 0 0 
206 10 26 8 74 8 0 0 0 
207 11 26 9 69 5 0 0 0 
208 12 26 10 72 3 0 0 0 
209 13 26 8 71 7 0 0 0 
210 14 26 9 70 4 0 0 0 
211 15 26 10 71 4 0 0 0 
212 16 26 13 74 7 0 0 0 
213 17 26 9 72 9 0 0 0 
214 18 26 14 72 6 0 0 0 
215 19 26 11 72 3 0 0 0 
216 20 26 13 73 5 0 0 0 
217 21 26 9 73 8 0 0 0 
218 22 26 13 73 6 0 0 0 
219 23 26 9 75 7 0 0 0 
220 24 26 10 68 6 0 0 0 
221 25 26 9 69 6 0 0 0 
222 26 26 11 70 6 0 0 0 
223 27 26 11 71 7 0 0 0 
224 28 26 8 74 4 0 0 0 
225 29 26 13 73 4 0 0 0 
226 30 26 9 74 8 0 0 0 
227 31 26 11 73 4 0 0 0 
228 32 26 12 74 5 0 0 0 
229 33 26 10 74 9 0 0 0 
230 34 26 13 72 7 0 0 0 
231 35 26 22 73 8 0 0 0 
232 36 26 28 73 6 0 0 0 
233 37 26 22 74 7 0 0 0 
234 38 26 28 71 4 0 0 0 
235 39 26 28 71 7 0 0 0 
236 40 26 26 69 4 0 0 0 
237 41 26 25 74 5 0 0 0 
238 42 26 27 71 4 0 0 0 
239 43 26 24 75 8 0 0 0 
240 44 26 22 72 8 0 0 0 
241 45 26 28 74 7 0 0 0 
242 46 26 26 70 4 0 0 0 
243 47 26 24 69 7 0 0 0 
244 48 26 24 74 4 0 0 0 
245 49 26 26 71 5 0 0 0 
246 50 26 23 74 6 0 0 0 
247 51 26 24 71 3 0 0 0 
248 52 26 23 71 4 0 0 0 
249 53 26 23 70 8 0 0 0 
250 54 26 26 72 5 0 0 0 
251 55 26 27 70 6 0 0 0 
252 56 26 26 72 3 0 0 0 
253 57 26 26 70 8 0 0 0 
254 58 26 24 73 6 0 0 0 
255 59 26 26 74 4 0 0 0 
256 60 26 28 73 7 0 0 0 
257 61 26 25 72 10 0 0 0 
258 62 26 24 70 8 0 0 0 
259 63 26 27 71 8 0 0 0 
260 64 26 23 72 7 0 0 0 
ITEM: TIMESTEP
20000
ITEM: NUMBER OF ATOMS
60
ITEM: BOX BOUNDS pp ff pp
0.0000000000000000e+00 4.0000000000000000e+01
0.0000000000000000e+00 8.0000000000000000e+01
0.0000000000000000e+00 1.2000000000000000e+01
ITEM: ATOMS id mol type x y z vx vy vz 
201 5 26 8 67.283 6.00015 -1.49198e-11 -0.000129669 1.88645e-08 
202 6 26 11 69.2063 9.00015 5.73144e-12 -0.00013968 2.03417e-08 
203 7 26 9 70.4968 4.00014 2.03384e-12 -0.000130652 1.90107e-08 
204 8 26 11 72.6613 3.00007 1.41584e-12 -6.524e-05 9.49243e-09 
205 9 26 8 72.4967 5.00014 1.90709e-12 -0.000134611 1.95867e-08 
206 10 26 8 71.2063 8.00015 1.13505e-12 -0.00013968 2.03273e-08 
207 11 26 9 66.6692 5.00013 -1.277e-12 -0.000102493 1.49045e-08 
208 12 26 10 70.1522 3.0001 2.02042e-12 -0.000101414 1.4756e-08 
209 13 26 8 68.2065 7.00016 -2.57301e-11 -0.000139683 2.03299e-08 
210 14 26 9 67.7241 4.00013 -5.33103e-14 -0.000107652 1.56554e-08 
211 15 26 10 68.501 4.00014 2.56228e-12 -0.000128577 1.86982e-08 
212 16 26 13 71.216 7.00015 5.09783e-12 -0.00013968 2.03264e-08 
213 17 26 9 69.2063 9.00015 -1.61947e-13 -0.00013968 2.03417e-08 
214 18 26 14 69.5997 6.00014 8.83947e-12 -0.000126372 1.83903e-08 
215 19 26 11 70.317 3.00009 2.14853e-12 -9.21117e-05 1.34029e-08 
216 20 26 13 70.4669 5.00014 4.50019e-12 -0.000131441 1.9127e-08 
217 21 26 9 70.2063 8.00015 2.78921e-13 -0.00013968 2.03308e-08 
218 22 26 13 70.252 6.00015 7.56913e-12 -0.000138285 2.01233e-08 
219 23 26 9 72.2063 7.00015 2.10247e-12 -0.00013968 2.03258e-08 
220 24 26 10 65.8703 6.00011 1.86942e-12 -9.37713e-05 1.36448e-08 
221 25 26 9 66.4183 6.00014 -4.35831e-12 -0.000115422 1.67935e-08 
222 26 26 11 67.2282 6.00016 1.46923e-11 -0.000135733 1.97432e-08 
223 27 26 11 68.2063 7.00016 2.21636e-11 -0.000139681 2.03296e-08 
224 28 26 8 71.7737 4.00012 1.64118e-12 -0.000115719 1.68379e-08 
225 29 26 13 71.0165 4.00011 3.18128e-12 -0.000107415 1.56302e-08 
226 30 26 9 71.2063 8.00015 1.92308e-12 -0.00013968 2.03274e-08 
227 31 26 11 70.4968 4.00014 3.17225e-12 -0.000130652 1.90107e-08 
228 32 26 12 71.2903 5.00015 3.87718e-12 -0.000137917 2.00686e-08 
229 33 26 10 71.2063 9.00015 2.78421e-12 -0.00013968 2.03283e-08 
230 34 26 13 69.2074 7.00015 2.40518e-11 -0.000139685 2.03291e-08 
231 35 26 22 70.2063 8.00015 -8.13312e-12 -0.00013968 2.03285e-08 
232 36 26 28 70.252 6.00015 2.05719e-12 -0.000138285 2.01233e-08 
233 37 26 22 71.216 7.00015 -5.09826e-12 -0.00013968 2.03264e-08 
234 38 26 28 69.0919 4.00011 -3.87449e-13 -9.30254e-05 1.35371e-08 
235 39 26 28 68.2257 7.00016 2.41655e-11 -0.000139162 2.0254e-08 
236 40 26 26 67.1405 4.0001 2.46733e-13 -8.48964e-05 1.23453e-08 
237 41 26 25 71.2127 5.00015 -2.78339e-12 -0.00013968 2.03252e-08 
238 42 26 27 68.6718 4.00013 7.17225e-14 -0.000112537 1.63725e-08 
239 43 26 24 72.2063 8.00015 -3.47589e-12 -0.00013968 2.03265e-08 
240 44 26 22 69.2069 8.00015 -1.60349e-11 -0.000139682 2.03317e-08 
241 45 26 28 71.216 7.00015 -4.69748e-13 -0.00013968 2.03265e-08 
242 46 26 26 67.7241 4.00013 5.29726e-14 -0.000107652 1.56554e-08 
243 47 26 24 66.3129 7.00015 -1.13551e-11 -0.000122711 1.78633e-08 
244 48 26 24 71.5832 4.00013 -2.86245e-12 -0.000124369 1.80966e-08 
245 49 26 26 68.2267 5.00016 2.12896e-12 -0.000138347 2.01163e-08 
246 50 26 23 71.2095 6.00015 -4.24552e-12 -0.00013968 2.03259e-08 
247 51 26 24 69.3928 3.00009 -2.25594e-12 -9.21953e-05 1.34141e-08 
248 52 26 23 68.6718 4.00013 -4.55756e-12 -0.000112537 1.63725e-08 
249 53 26 23 67.2176 8.00016 -2.04304e-11 -0.0001381 2.01096e-08 
250 54 26 26 69.2075 5.00015 3.33974e-14 -0.000139686 2.03161e-08 
251 55 26 27 67.283 6.00015 1.49194e-11 -0.000129669 1.88645e-08 
252 56 26 26 70.317 3.00009 -1.52195e-12 -9.21117e-05 1.34029e-08 
253 57 26 26 67.2065 8.00016 9.29996e-12 -0.000139691 2.03456e-08 
254 58 26 24 70.2063 6.00015 -5.20253e-12 -0.00013968 2.03243e-08 
255 59 26 26 71.5832 4.00013 -2.09344e-12 -0.000124369 1.80966e-08 
256 60 26 28 70.2063 7.00015 4.9446e-12 -0.000139681 2.03275e-08 
257 61 26 25 69.2063 10.0002 -2.78546e-12 -0.00013968 2.034e-08 
258 62 26 24 67.2065 8.00016 -1.48711e-11 -0.000139691 2.03456e-08 
259 63 26 27 68.2063 8.00016 1.66528e-11 -0.000139682 2.03404e-08 
260 64 26 23 69.2063 7.00016 -2.31466e-11 -0.00013968 2.03285e-08 
ITEM: TIMESTEP
40000
ITEM: NUMBER OF ATOMS
60
ITEM: BOX BOUNDS pp ff pp
0.0000000000000000e+00 4.0000000000000000e+01
0.0000000000000000e+00 8.0000000000000000e+01
0.0000000000000000e+00 1.2000000000000000e+01
ITEM: ATOMS id mol type x y z vx vy vz 
201 5 26 8 61.9968 6.00321 -1.59228e-08 -0.000138759 1.21071e-07 
202 6 26 11 61.5934 9.00467 -2.01511e-08 -0.000172691 1.51042e-07 
203 7 26 8.99997 63.6059 4.00419 -2.10019e-08 -0.000184104 1.60902e-07 
204 8 26 11 67.8272 3.00304 -2.3741e-08 -0.00020484 1.79774e-07 
205 9 26 7.99995 64.2866 5.00509 -2.90692e-08 -0.000252412 2.20418e-07 
206 10 26 7.99995 62.8705 8.00522 -3.13941e-08 -0.000269235 2.34896e-07 
207 11 26 8.99999 62.0745 5.00282 -1.5539e-08 -0.00013633 1.19074e-07 
208 12 26 9.99998 64.785 3.00324 -1.62078e-08 -0.000141819 1.24149e-07 
209 13 26 8 61.6812 7.00394 -1.6975e-08 -0.000147224 1.28424e-07 
210 14 26 8.99999 62.945 4.00293 -1.56887e-08 -0.000137858 1.2046e-07 
211 15 26 9.99998 62.7628 4.00347 -1.64816e-08 -0.000145021 1.2681e-07 
212 16 26 13 63.0464 7.00509 -2.72425e-08 -0.000234726 2.05856e-07 
213 17 26 8.99998 61.5943 9.00466 -2.00742e-08 -0.000172059 1.50204e-07 
214 18 26 14 63.6249 6.00362 -1.75461e-08 -0.000151325 1.32871e-07 
215 19 26 11 65.2037 3.00311 -1.66691e-08 -0.000145595 1.27586e-07 
216 20 26 13 63.7438 5.00407 -1.88583e-08 -0.000163863 1.43758e-07 
217 21 26 8.99997 61.9893 8.00512 -2.6469e-08 -0.00022817 1.99199e-07 
218 22 26 13 62.9297 6.00447 -2.00869e-08 -0.00017421 1.52765e-07 
219 23 26 8.99995 63.8509 7.00522 -3.23919e-08 -0.000278231 2.43114e-07 
220 24 26 9.99998 61.4689 6.00271 -1.5816e-08 -0.000138373 1.20917e-07 
221 25 26 8.99999 61.6137 6.00293 -1.57791e-08 -0.000137884 1.20398e-07 
222 26 26 11 61.6392 6.00337 -1.61864e-08 -0.000141491 1.23755e-07 
223 27 26 11 61.3976 7.00412 -1.71239e-08 -0.00014891 1.3023e-07 
224 28 26 7.99997 64.8332 4.00424 -2.22715e-08 -0.000193805 1.6931e-07 
225 29 26 13 65.2224 4.00349 -1.7572e-08 -0.000152429 1.33861e-07 
226 30 26 8.99996 62.8523 8.00523 -3.22382e-08 -0.000276649 2.41601e-07 
227 31 26 11 63.6063 4.00419 -2.09601e-08 -0.000183844 1.60956e-07 
228 32 26 12 63.4223 5.00484 -2.40911e-08 -0.000210152 1.84154e-07 
229 33 26 9.99996 62.8531 9.00523 -3.24842e-08 -0.000276633 2.41838e-07 
230 34 26 13 62.2683 7.00421 -1.84901e-08 -0.000159796 1.40077e-07 
231 35 26 22 62.4012 8.00481 2.27944e-08 -0.000195701 1.71567e-07 
232 36 26 28 62.9303 6.00445 2.00533e-08 -0.000173792 1.51543e-07 
233 37 26 22 63.0464 7.00509 2.72426e-08 -0.000234726 2.05856e-07 
234 38 26 28 64.7369 4.00265 1.45464e-08 -0.000126348 1.10282e-07 
235 39 26 28 62.1485 7.00365 1.69654e-08 -0.000146629 1.27813e-07 
236 40 26 26 62.8913 4.00263 1.51623e-08 -0.000133252 1.16435e-07 
237 41 26 25 62.9651 5.00512 2.78811e-08 -0.000244199 2.13525e-07 
238 42 26 27 63.7769 4.00298 1.56609e-08 -0.000136904 1.19563e-07 
239 43 26 24 63.8509 8.00523 3.26535e-08 -0.000278307 2.43693e-07 
240 44 26 22 62.111 8.00431 1.90151e-08 -0.000163473 1.43288e-07 
241 45 26 28 63.0462 7.00507 2.72795e-08 -0.000234964 2.04841e-07 
242 46 26 26 62.945 4.00293 1.56887e-08 -0.000137858 1.2046e-07 
243 47 26 24 61.2825 7.00305 1.54632e-08 -0.000134515 1.17635e-07 
244 48 26 24 64.181 4.00455 2.38676e-08 -0.000208794 1.82864e-07 
245 49 26 26 62.1509 5.00367 1.65817e-08 -0.000145452 1.27044e-07 
246 50 26 23 63.0063 6.00511 2.74027e-08 -0.000238117 2.08612e-07 
247 51 26 24 64.9638 3.00267 1.48487e-08 -0.000129825 1.13753e-07 
248 52 26 23 63.7772 4.00298 1.56205e-08 -0.000136674 1.19783e-07 
249 53 26 23 61.4572 8.00345 1.62169e-08 -0.000139947 1.22513e-07 
250 54 26 26 62.2705 5.0042 1.81363e-08 -0.000159039 1.38915e-07 
251 55 26 27 61.9968 6.00321 1.59228e-08 -0.000138759 1.21071e-07 
252 56 26 26 65.2035 3.00311 1.66947e-08 -0.00014574 1.27505e-07 
253 57 26 26 61.1855 8.0036 1.56334e-08 -0.000135205 1.18016e-07 
254 58 26 24 62.1966 6.00496 2.39221e-08 -0.000208806 1.82674e-07 
255 59 26 26 64.1808 4.00454 2.39023e-08 -0.00020898 1.82684e-07 
256 60 26 28 62.5233 7.00471 2.17517e-08 -0.000187741 1.63658e-07 
257 61 26 25 61.7556 10.0046 2.01324e-08 -0.000171116 1.49539e-07 
258 62 26 24 61.1843 8.0036 1.57227e-08 -0.000135968 1.189e-07 
259 63 26 27 61.5303 8.00402 1.72392e-08 -0.000148729 1.29718e-07 
260 64 26 23 61.8358 7.00451 1.91816e-08 -0.000166343 1.45642e-07 
ITEM: TIMESTEP
60000
ITEM: NUMBER OF ATOMS
60
ITEM: BOX BOUNDS pp ff pp
0.0000000000000000e+00 4.0000000000000000e+01
0.0000000000000000e+00 8.0000000000000000e+01
0.0000000000000000e+00 1.2000000000000000e+01
ITEM: ATOMS id mol type x y z vx vy vz 
201 5 26 7.99953 55.2539 6.01366 -7.54311e-08 -0.000203279 5.60515e-07 
202 6 26 10.9995 54.5897 9.0153 -8.14529e-08 -0.000207166 5.73782e-07 
203 7 26 8.99963 56.2518 4.01517 -6.85236e-08 -0.000194659 5.3911e-07 
204 8 26 10.9999 58.7274 3.01623 -6.98624e-08 -0.000213899 5.97896e-07 
205 9 26 7.99976 55.8719 5.01717 -7.17162e-08 -0.000198989 5.49545e-07 
206 10 26 7.99972 54.7241 8.01705 -7.95554e-08 -0.000205827 5.66765e-07 
207 11 26 8.99951 55.4214 5.01308 -7.07862e-08 -0.000194864 5.38742e-07 
208 12 26 9.99977 58.0465 3.01334 -6.80099e-08 -0.000204154 5.69019e-07 
209 13 26 7.99953 54.882 7.01449 -7.85976e-08 -0.000206834 5.69758e-07 
210 14 26 8.99955 56.2439 4.01325 -6.80579e-08 -0.000193309 5.35365e-07 
211 15 26 9.99952 56.0647 4.01371 -6.82091e-08 -0.000193384 5.36406e-07 
212 16 26 12.9997 55.303 7.01638 -7.54076e-08 -0.00020146 5.60928e-07 
213 17 26 8.99956 54.5314 9.01543 -7.93246e-08 -0.000201571 5.55958e-07 
214 18 26 13.9995 56.8473 6.01397 -7.09091e-08 -0.000199827 5.5906e-07 
215 19 26 10.9998 58.4734 3.01323 -6.21817e-08 -0.00018918 5.28587e-07 
216 20 26 12.9996 56.6607 5.01468 -6.97489e-08 -0.000198545 5.54243e-07 
217 21 26 8.99965 54.4526 8.0163 -7.69891e-08 -0.000198286 5.46829e-07 
218 22 26 12.9995 55.7764 6.01524 -7.25658e-08 -0.000199144 5.55013e-07 
219 23 26 8.99989 54.5888 7.01812 -7.86826e-08 -0.000206233 5.68968e-07 
220 24 26 9.99947 54.7611 6.01307 -7.70301e-08 -0.000205681 5.68874e-07 
221 25 26 8.9995 54.9077 6.0133 -7.6241e-08 -0.000203977 5.6319e-07 
222 26 26 10.9994 54.8571 6.01385 -7.78223e-08 -0.000208361 5.77473e-07 
223 27 26 10.9994 54.5583 7.01465 -7.96264e-08 -0.000208977 5.78895e-07 
224 28 26 7.99963 56.9493 4.01594 -6.87424e-08 -0.000198261 5.48832e-07 
225 29 26 12.9996 58.0555 4.01426 -6.54978e-08 -0.000195669 5.4769e-07 
226 30 26 8.99979 54.4545 8.01723 -7.71361e-08 -0.000198666 5.47877e-07 
227 31 26 10.9996 56.261 4.01504 -6.90418e-08 -0.000196914 5.47388e-07 
228 32 26 11.9996 55.8265 5.01599 -7.17807e-08 -0.000200247 5.57114e-07 
229 33 26 9.9998 54.4537 9.01722 -7.92212e-08 -0.000200895 5.55174e-07 
230 34 26 12.9995 55.3007 7.01477 -7.52525e-08 -0.000201043 5.59762e-07 
231 35 26 22.0004 55.1998 8.0156 7.7855e-08 -0.000204315 5.68732e-07 
232 36 26 28.0004 55.8509 6.0152 7.19919e-08 -0.00019655 5.41586e-07 
233 37 26 22.0003 55.303 7.01638 7.54076e-08 -0.00020146 5.60928e-07 
234 38 26 28.0005 58.0726 4.01292 6.39229e-08 -0.000189735 5.25563e-07 
235 39 26 28.0005 55.3858 7.0141 7.53194e-08 -0.000200594 5.52085e-07 
236 40 26 26.0005 56.2436 4.0129 6.80227e-08 -0.000193209 5.35088e-07 
237 41 26 25.0003 55.2878 5.01631 7.1522e-08 -0.000196424 5.43942e-07 
238 42 26 27.0005 56.9169 4.01356 6.74369e-08 -0.000194355 5.37992e-07 
239 43 26 24.0001 54.4876 8.01821 7.95111e-08 -0.000204999 5.67769e-07 
240 44 26 22.0004 55.199 8.01483 7.78112e-08 -0.0002042 5.6841e-07 
241 45 26 28.0004 55.3879 7.01638 7.54955e-08 -0.000201063 5.53377e-07 
242 46 26 26.0005 56.2439 4.01325 6.80579e-08 -0.000193309 5.35365e-07 
243 47 26 24.0006 54.5584 7.01348 7.96159e-08 -0.000208954 5.78831e-07 
244 48 26 24.0003 56.2709 4.016 6.95143e-08 -0.000198297 5.5124e-07 
245 49 26 26.0005 55.421 5.01399 7.08051e-08 -0.000194911 5.38871e-07 
246 50 26 23.0004 55.179 6.01654 7.67449e-08 -0.000207273 5.75901e-07 
247 51 26 24.0002 58.4593 3.01254 6.17361e-08 -0.000187755 5.24592e-07 
248 52 26 23.0004 56.8629 4.0134 6.65423e-08 -0.000192694 5.37147e-07 
249 53 26 23.0005 54.7298 8.01386 8.07095e-08 -0.000209313 5.81055e-07 
250 54 26 26.0004 55.421 5.01464 7.08303e-08 -0.000194977 5.39054e-07 
251 55 26 27.0005 55.2539 6.01366 7.54311e-08 -0.000203279 5.60515e-07 
252 56 26 26.0002 58.2315 3.01351 7.25538e-08 -0.000218295 6.07518e-07 
253 57 26 26.0005 54.4515 8.01402 7.68947e-08 -0.000198048 5.46171e-07 
254 58 26 24.0005 54.8573 6.01596 7.79145e-08 -0.000208601 5.78137e-07 
255 59 26 26.0003 56.2621 4.01613 6.90372e-08 -0.000196157 5.43268e-07 
256 60 26 28.0004 55.3864 7.01552 7.53902e-08 -0.00020078 5.52598e-07 
257 61 26 25.0005 54.7138 10.0153 8.03341e-08 -0.000202206 5.59041e-07 
258 62 26 24.0005 54.4794 8.01395 7.88922e-08 -0.000203399 5.63332e-07 
259 63 26 27.0005 54.7213 8.01458 7.93508e-08 -0.000205299 5.6531e-07 
260 64 26 23.0005 54.8123 7.01523 7.94372e-08 -0.000209512 5.81705e-07 
ITEM: TIMESTEP
80000
ITEM: NUMBER OF ATOMS
60
ITEM: BOX BOUNDS pp ff pp
0.0000000000000000e+00 4.0000000000000000e+01
0.0000000000000000e+00 8.0000000000000000e+01
0.0000000000000000e+00 1.2000000000000000e+01
ITEM: ATOMS id mol type x y z vx vy vz 
201 5 26 7.99443 50.0564 6.04321 1.32859e-06 -1.65764e-05 2.02714e-06 
202 6 26 11.0212 48.8779 9.08385 1.65787e-06 -1.87057e-05 2.8395e-06 
203 7 26 9.00424 51.316 4.03989 1.28273e-06 -1.36764e-05 1.63479e-06 
204 8 26 11.0099 53.5084 3.04574 1.44689e-06 -1.4937e-05 1.71647e-06 
205 9 26 8.00298 50.8293 5.0469 1.38445e-06 -1.49258e-05 1.85403e-06 
206 10 26 7.96614 49.2645 8.06229 9.00538e-07 -1.84184e-05 2.51662e-06 
207 11 26 9.0028 50.3117 5.04146 1.444e-06 -1.61685e-05 1.94759e-06 
208 12 26 10.0086 53.1462 3.04164 1.48602e-06 -1.55639e-05 1.77907e-06 
209 13 26 7.97839 49.51 7.04632 1.14771e-06 -1.82618e-05 2.27517e-06 
210 14 26 9.00415 51.3184 4.03793 1.28199e-06 -1.3669e-05 1.63358e-06 
211 15 26 10.0069 51.0888 4.03993 1.40801e-06 -1.5056e-05 1.81146e-06 
212 16 26 13.0184 50.1271 7.05093 1.63243e-06 -1.62367e-05 1.96381e-06 
213 17 26 8.97024 48.9076 9.08443 6.26398e-07 -1.83783e-05 2.87759e-06 
214 18 26 14.0153 51.942 6.04315 1.32852e-06 -1.34194e-05 1.56082e-06 
215 19 26 11.0098 53.4874 3.04188 1.42848e-06 -1.47512e-05 1.69476e-06 
216 20 26 13.0144 51.6542 5.04359 1.39315e-06 -1.43824e-05 1.67074e-06 
217 21 26 8.96791 48.7869 8.06321 5.54338e-07 -1.88754e-05 2.56319e-06 
218 22 26 13.0138 50.6725 6.04688 1.338e-06 -1.39205e-05 1.69221e-06 
219 23 26 8.9784 49.014 7.04462 9.83567e-07 -1.92545e-05 2.20523e-06 
220 24 26 10.0024 49.3303 6.03199 1.58003e-06 -1.94551e-05 2.11893e-06 
221 25 26 8.99284 49.5481 6.03611 1.43265e-06 -1.87665e-05 2.14876e-06 
222 26 26 11.0131 49.5196 6.03638 1.74104e-06 -1.86785e-05 2.1251e-06 
223 27 26 11.0189 48.9768 7.04066 1.75866e-06 -1.92774e-05 2.0631e-06 
224 28 26 8.00105 52.0261 4.03951 1.11882e-06 -1.2209e-05 1.39947e-06 
225 29 26 13.0114 53.1623 4.04053 1.20356e-06 -1.21704e-05 1.39144e-06 
226 30 26 8.96806 48.7869 8.06417 5.54181e-07 -1.8875e-05 2.56359e-06 
227 31 26 11.0079 51.2986 4.03985 1.26841e-06 -1.35311e-05 1.59612e-06 
228 32 26 12.0112 50.7249 5.04515 1.3289e-06 -1.40606e-05 1.70377e-06 
229 33 26 9.99299 48.6988 9.09021 9.54197e-07 -1.88357e-05 3.00014e-06 
230 34 26 13.0182 50.1275 7.04931 1.63178e-06 -1.62305e-05 1.96306e-06 
231 35 26 21.98 49.9444 8.06566 -1.43162e-06 -1.78577e-05 3.01712e-06 
232 36 26 28.0028 50.8152 6.05582 -9.85269e-07 -1.43744e-05 2.42521e-06 
233 37 26 21.9836 50.1228 7.0594 -1.29744e-06 -1.63823e-05 2.69787e-06 
234 38 26 28.0014 53.2281 4.04562 -8.49624e-07 -1.21979e-05 1.93777e-06 
235 39 26 28.0105 50.2284 7.05765 -7.88969e-07 -1.58469e-05 2.69537e-06 
236 40 26 25.9979 51.3264 4.04472 -9.61772e-07 -1.35352e-05 2.18507e-06 
237 41 26 24.9972 50.1554 5.05135 -1.09627e-06 -1.61506e-05 2.58819e-06 
238 42 26 27.0009 52.0397 4.04335 -8.41052e-07 -1.21599e-05 1.90298e-06 
239 43 26 23.982 48.7527 8.07567 -1.34608e-06 -1.94199e-05 3.16426e-06 
240 44 26 21.9801 49.9443 8.06488 -1.4317e-06 -1.78585e-05 3.01716e-06 
241 45 26 28.0104 50.2274 7.05996 -7.88919e-07 -1.58545e-05 2.69668e-06 
242 46 26 25.9979 51.3259 4.04508 -9.61843e-07 -1.35362e-05 2.18529e-06 
243 47 26 23.9844 48.9786 7.05029 -1.39325e-06 -1.93862e-05 2.86128e-06 
244 48 26 23.9938 51.2982 4.04886 -9.69078e-07 -1.34058e-05 2.16339e-06 
245 49 26 26.0001 50.3257 5.04987 -1.01923e-06 -1.55182e-05 2.48195e-06 
246 50 26 22.9872 49.9648 6.05339 -1.17416e-06 -1.59763e-05 2.62742e-06 
247 51 26 23.9889 53.3637 3.05654 -1.34376e-06 -1.75517e-05 2.78303e-06 
248 52 26 22.9919 51.9803 4.04562 -9.65159e-07 -1.26726e-05 1.99254e-06 
249 53 26 22.9696 49.1926 8.07028 -1.60421e-06 -1.94591e-05 3.25905e-06 
250 54 26 26 50.3252 5.05052 -1.01927e-06 -1.55202e-05 2.4822e-06 
251 55 26 27.0083 50.0706 6.05123 -9.1051e-07 -1.63145e-05 2.62577e-06 
252 56 26 25.9991 53.7068 3.03922 -7.3918e-07 -9.98303e-06 1.57403e-06 
253 57 26 26.0352 48.7926 8.07104 -2.87859e-07 -1.92499e-05 3.21917e-06 
254 58 26 23.9896 49.521 6.0482 -1.2809e-06 -1.82416e-05 2.82222e-06 
255 59 26 25.9977 51.3225 4.04804 -9.62766e-07 -1.35489e-05 2.18775e-06 
256 60 26 28.0104 50.2278 7.05909 -7.88926e-07 -1.58515e-05 2.69616e-06 
257 61 26 25.0034 49.1578 10.1031 -9.78578e-07 -1.89235e-05 3.73873e-06 
258 62 26 23.9825 48.7528 8.07128 -1.34605e-06 -1.94207e-05 3.16237e-06 
259 63 26 27.0368 49.2633 8.07009 -4.35643e-07 -1.91038e-05 3.25245e-06 
260 64 26 22.977 49.438 7.05654 -1.49346e-06 -1.87801e-05 2.98712e-06 
ITEM: TIMESTEP
100000
ITEM: NUMBER OF ATOMS
60
ITEM: BOX BOUNDS pp ff pp
0.0000000000000000e+00 4.0000000000000000e+01
0.0000000000000000e+00 8.0000000000000000e+01
0.0000000000000000e+00 1.2000000000000000e+01
ITEM: ATOMS id mol type x y z vx vy vz 
201 5 26 8.04296 49.6332 6.13335 1.93829e-06 -7.29207e-06 2.32377e-06 
202 6 26 11.0657 48.4577 9.18592 1.29058e-06 -6.77032e-06 2.48256e-06 
203 7 26 9.04918 50.9919 4.10535 1.65349e-06 -5.65608e-06 1.725e-06 
204 8 26 11.0655 53.1376 3.11743 2.00674e-06 -6.53735e-06 1.89334e-06 
205 9 26 8.05168 50.4649 5.1234 1.87887e-06 -6.54721e-06 2.07915e-06 
206 10 26 7.98985 48.8481 8.15595 1.09951e-06 -6.47935e-06 2.32334e-06 
207 11 26 9.05374 49.9071 5.12585 2.08204e-06 -7.53901e-06 2.37661e-06 
208 12 26 10.0663 52.7568 3.11721 2.11048e-06 -6.93491e-06 2.01845e-06 
209 13 26 8.01315 49.0817 7.13631 1.44763e-06 -6.81371e-06 2.20154e-06 
210 14 26 9.04908 50.9945 4.10336 1.65278e-06 -5.6533e-06 1.72399e-06 
211 15 26 10.0559 50.7284 4.11243 1.74692e-06 -6.10504e-06 1.85248e-06 
212 16 26 13.0746 49.7317 7.1344 2.10887e-06 -7.55015e-06 2.33513e-06 
213 17 26 8.98722 48.4971 9.18703 8.35895e-07 -6.38396e-06 2.52263e-06 
214 18 26 14.0676 51.5859 6.11248 1.7992e-06 -6.08569e-06 1.7539e-06 
215 19 26 11.0647 53.121 3.11272 1.98434e-06 -6.46701e-06 1.87289e-06 
216 20 26 13.0621 51.3166 5.10894 1.59314e-06 -5.44363e-06 1.58084e-06 
217 21 26 8.98068 48.3694 8.15542 7.94875e-07 -6.67494e-06 2.34237e-06 
218 22 26 13.0637 50.3188 6.11931 1.78492e-06 -6.28032e-06 1.90035e-06 
219 23 26 9.00059 48.5968 7.1263 1.00257e-06 -6.50238e-06 2.01074e-06 
220 24 26 10.0455 48.8932 6.11438 1.42173e-06 -6.71594e-06 1.97722e-06 
221 25 26 9.03383 49.1177 6.12134 1.56077e-06 -6.84692e-06 2.07863e-06 
222 26 26 11.0676 49.073 6.12343 1.73134e-06 -7.01379e-06 2.08166e-06 
223 27 26 11.0648 48.5491 7.12255 1.37219e-06 -6.83148e-06 2.0572e-06 
224 28 26 8.04344 51.7278 4.09821 1.60587e-06 -5.38701e-06 1.60674e-06 
225 29 26 13.0531 52.8808 4.09384 1.42607e-06 -4.68098e-06 1.33695e-06 
226 30 26 8.98082 48.3693 8.1564 7.94816e-07 -6.67496e-06 2.34267e-06 
227 31 26 11.0519 50.9775 4.10343 1.51237e-06 -5.24783e-06 1.56258e-06 
228 32 26 12.0611 50.3626 5.11851 1.73796e-06 -6.10151e-06 1.8456e-06 
229 33 26 10.0193 48.2719 9.19664 9.68077e-07 -6.92938e-06 2.63785e-06 
230 34 26 13.0745 49.7322 7.13275 2.10856e-06 -7.54894e-06 2.3347e-06 
231 35 26 21.8699 49.5489 8.17807 -3.37383e-06 -8.20805e-06 2.95792e-06 
232 36 26 27.9192 50.5094 6.14394 -2.53979e-06 -5.92257e-06 2.3102e-06 
233 37 26 21.8695 49.7163 7.17263 -3.32768e-06 -8.08517e-06 2.85153e-06 
234 38 26 27.9205 52.9433 4.121 -2.52734e-06 -5.91166e-06 2.0434e-06 
235 39 26 27.9238 49.8901 7.15711 -2.60976e-06 -6.41448e-06 2.53737e-06 
236 40 26 25.9131 51.0195 4.12794 -2.5192e-06 -5.93526e-06 2.14465e-06 
237 41 26 24.8865 49.7495 5.16392 -3.38535e-06 -8.40229e-06 3.03561e-06 
238 42 26 26.922 51.7574 4.11792 -2.52617e-06 -5.96077e-06 2.07101e-06 
239 43 26 23.8871 48.3426 8.19205 -2.60925e-06 -7.92583e-06 2.86106e-06 
240 44 26 21.8699 49.5488 8.1773 -3.37389e-06 -8.20823e-06 2.95792e-06 
241 45 26 27.9237 49.8889 7.15946 -2.6105e-06 -6.41755e-06 2.53846e-06 
242 46 26 25.9131 51.019 4.12831 -2.51913e-06 -5.9351e-06 2.14466e-06 
243 47 26 23.8867 48.5722 7.15631 -2.63085e-06 -7.6318e-06 2.59439e-06 
244 48 26 23.9115 50.9974 4.12957 -2.52593e-06 -6.02e-06 2.15201e-06 
245 49 26 25.9056 49.9712 5.14944 -2.76647e-06 -6.74863e-06 2.52765e-06 
246 50 26 22.8748 49.5629 6.16499 -3.27662e-06 -8.03713e-06 2.80343e-06 
247 51 26 23.8694 52.9445 3.16591 -3.60027e-06 -8.49993e-06 2.87088e-06 
248 52 26 22.9135 51.6962 4.11953 -2.35892e-06 -5.62464e-06 1.92236e-06 
249 53 26 22.862 48.7895 8.18569 -2.94584e-06 -7.70412e-06 2.79178e-06 
250 54 26 25.9055 49.9706 5.1501 -2.7665e-06 -6.74888e-06 2.52776e-06 
251 55 26 26.924 49.7402 6.14668 -2.43522e-06 -6.00099e-06 2.3358e-06 
252 56 26 25.9303 53.4672 3.10207 -2.15074e-06 -5.00441e-06 1.70578e-06 
253 57 26 25.9683 48.396 8.18562 -2.06238e-06 -7.49099e-06 2.73e-06 
254 58 26 23.8811 49.1081 6.15883 -3.05965e-06 -7.96364e-06 2.72578e-06 
255 59 26 25.9129 51.0154 4.13134 -2.51958e-06 -5.93629e-06 2.14549e-06 
256 60 26 27.9238 49.8894 7.15857 -2.61021e-06 -6.41635e-06 2.53804e-06 
257 61 26 24.9143 48.7681 10.2318 -2.6081e-06 -7.47064e-06 3.06134e-06 
258 62 26 23.8875 48.3426 8.1876 -2.60901e-06 -7.92596e-06 2.86012e-06 
259 63 26 26.9585 48.8678 8.18694 -2.23416e-06 -7.15554e-06 2.70472e-06 
260 64 26 22.8638 49.0187 7.17054 -3.07669e-06 -7.8459e-06 2.7174e-06 
ITEM: TIMESTEP
120000
ITEM: NUMBER OF ATOMS
60
ITEM: BOX BOUNDS pp ff pp
0.0000000000000000e+00 4.0000000000000000e+01
0.0000000000000000e+00 8.0000000000000000e+01
0.0000000000000000e+00 1.2000000000000000e+01
ITEM: ATOMS id mol type x y z vx vy vz 
201 5 26 8.10872 49.3501 6.23164 1.21316e-07 -6.84284e-06 1.21235e-06 
202 6 26 11.1012 48.1986 9.286 -7.00865e-07 -5.73219e-06 1.44159e-06 
203 7 26 9.11321 50.7505 4.18554 4.61303e-07 -7.0309e-06 1.15389e-06 
204 8 26 11.1431 52.8602 3.20567 6.30156e-07 -7.59048e-06 1.19061e-06 
205 9 26 8.12233 50.1924 5.2173 3.74837e-07 -7.10058e-06 1.20432e-06 
206 10 26 8.02493 48.5979 8.25159 -4.19773e-07 -5.8926e-06 1.36672e-06 
207 11 26 9.12926 49.6041 5.22944 3.00578e-07 -7.50971e-06 1.28422e-06 
208 12 26 10.1496 52.455 3.21355 6.77257e-07 -8.48329e-06 1.34008e-06 
209 13 26 8.05928 48.8236 7.22822 -2.17611e-07 -6.13017e-06 1.2331e-06 
210 14 26 9.11309 50.7531 4.18349 4.61532e-07 -7.02861e-06 1.15332e-06 
211 15 26 10.1217 50.4775 4.19641 3.98712e-07 -6.7437e-06 1.13288e-06 
212 16 26 13.1472 49.44 7.23318 2.5887e-07 -6.95759e-06 1.2279e-06 
213 17 26 9.01428 48.2442 9.29002 -6.35661e-07 -5.69085e-06 1.55826e-06 
214 18 26 14.1307 51.3542 6.18749 4.08207e-07 -5.64001e-06 9.18811e-07 
215 19 26 11.1416 52.8464 3.20009 6.24069e-07 -7.52357e-06 1.18014e-06 
216 20 26 13.1185 51.1082 5.177 3.46591e-07 -5.10167e-06 8.35267e-07 
217 21 26 9.00645 48.1066 8.25819 -6.56343e-07 -6.02118e-06 1.65508e-06 
218 22 26 13.1256 50.0779 6.20094 2.68929e-07 -5.85337e-06 1.01935e-06 
219 23 26 9.03277 48.3441 7.21852 -4.62364e-07 -5.91575e-06 1.45621e-06 
220 24 26 10.0927 48.6347 6.20356 -2.06605e-07 -6.11095e-06 1.30339e-06 
221 25 26 9.08517 48.8553 6.21147 -1.01127e-07 -6.23197e-06 1.20698e-06 
222 26 26 11.1234 48.8107 6.21323 -5.76634e-08 -6.17561e-06 1.2483e-06 
223 27 26 11.1039 48.29 7.21747 -5.29002e-07 -5.93799e-06 1.57413e-06 
224 28 26 8.10883 51.4867 4.17728 4.91219e-07 -6.83609e-06 1.09124e-06 
225 29 26 13.1074 52.6877 4.15498 4.18295e-07 -4.96045e-06 7.68057e-07 
226 30 26 9.00659 48.1065 8.25917 -6.56446e-07 -6.0211e-06 1.65515e-06 
227 31 26 11.1076 50.7687 4.17253 3.43994e-07 -5.36112e-06 8.81566e-07 
228 32 26 12.1227 50.1253 5.19909 2.79565e-07 -5.8465e-06 1.02827e-06 
229 33 26 10.0482 47.9992 9.30555 -8.25239e-07 -6.03622e-06 1.6672e-06 
230 34 26 13.147 49.4406 7.23151 2.58891e-07 -6.95616e-06 1.22757e-06 
231 35 26 21.6828 49.3435 8.27185 -4.72818e-06 -3.28484e-06 1.56271e-06 
232 36 26 27.7463 50.4096 6.2273 -4.80062e-06 -5.65323e-07 1.6981e-06 
233 37 26 21.6846 49.5172 7.26274 -4.64079e-06 -3.13202e-06 1.51459e-06 
234 38 26 27.7494 52.8345 4.1877 -4.71188e-06 -1.13565e-06 1.23577e-06 
235 39 26 27.7552 49.793 7.24605 -4.60045e-06 -1.00517e-07 1.82677e-06 
236 40 26 25.7537 50.8946 4.19768 -4.39773e-06 -1.6578e-06 1.32508e-06 
237 41 26 24.7011 49.5804 5.26005 -4.77293e-06 -1.97331e-06 1.77871e-06 
238 42 26 26.755 51.6385 4.18713 -4.5759e-06 -1.39887e-06 1.29641e-06 
239 43 26 23.7637 48.1749 8.28738 -3.23238e-06 -2.13466e-06 1.76658e-06 
240 44 26 21.6828 49.3434 8.27107 -4.72806e-06 -3.28483e-06 1.56269e-06 
241 45 26 27.7551 49.7918 7.24842 -4.59995e-06 -9.9741e-08 1.82694e-06 
242 46 26 25.7537 50.8941 4.19805 -4.39764e-06 -1.65768e-06 1.32516e-06 
243 47 26 23.761 48.4119 7.24085 -3.29106e-06 -2.10382e-06 1.57795e-06 
244 48 26 23.7362 50.8441 4.20564 -4.86394e-06 -2.50091e-06 1.4767e-06 
245 49 26 25.741 49.8426 5.23376 -4.4609e-06 -1.31892e-06 1.65801e-06 
246 50 26 22.7077 49.3864 6.25067 -4.12082e-06 -2.47155e-06 1.48367e-06 
247 51 26 23.6284 52.7426 3.25954 -6.70483e-06 -3.28305e-06 1.71323e-06 
248 52 26 22.7487 51.5488 4.1868 -4.60277e-06 -2.56174e-06 1.28361e-06 
249 53 26 22.7212 48.6155 8.27343 -3.5552e-06 -2.55766e-06 1.51547e-06 
250 54 26 25.741 49.842 5.23443 -4.46055e-06 -1.31858e-06 1.65806e-06 
251 55 26 26.7696 49.638 6.22915 -4.19187e-06 -5.77946e-07 1.66467e-06 
252 56 26 25.7806 53.3594 3.15881 -4.18759e-06 -1.48486e-06 1.03939e-06 
253 57 26 25.8659 48.2742 8.27695 -2.76038e-06 -7.93126e-07 1.79123e-06 
254 58 26 23.7319 48.9452 6.2424 -3.75514e-06 -2.07833e-06 1.48954e-06 
255 59 26 25.7535 50.8905 4.20111 -4.39856e-06 -1.65752e-06 1.32619e-06 
256 60 26 27.7552 49.7923 7.24753 -4.60014e-06 -1.00014e-07 1.82687e-06 
257 61 26 24.7902 48.6317 10.3268 -3.29034e-06 -1.31996e-06 1.71943e-06 
258 62 26 23.7642 48.1749 8.28291 -3.23254e-06 -2.13485e-06 1.76644e-06 
259 63 26 26.8417 48.7695 8.27327 -3.04633e-06 -4.11902e-08 1.65192e-06 
260 64 26 22.7137 48.8437 7.25446 -3.7434e-06 -2.52381e-06 1.46266e-06 
ITEM: TIMESTEP
140000
ITEM: NUMBER OF ATOMS
60
ITEM: BOX BOUNDS pp ff pp
0.0000000000000000e+00 4.0000000000000000e+01
0.0000000000000000e+00 8.0000000000000000e+01
0.0000000000000000e+00 1.2000000000000000e+01
ITEM: ATOMS id mol type x y z vx vy vz 
201 5 26 8.0444 49.158 6.20336 -2.12859e-06 -4.42778e-06 -1.56627e-06 
202 6 26 11.0113 48.0479 9.26814 -3.09256e-06 -3.77623e-06 -1.56459e-06 
203 7 26 9.05482 50.5287 4.1506 -1.96776e-06 -5.28429e-06 -1.75858e-06 
204 8 26 11.0875 52.6265 3.16771 -1.85459e-06 -5.52822e-06 -1.8168e-06 
205 9 26 8.06356 49.9862 5.18572 -1.9391e-06 -4.74681e-06 -1.63932e-06 
206 10 26 7.94896 48.4437 8.23534 -2.5178e-06 -3.63099e-06 -1.39006e-06 
207 11 26 9.06498 49.3906 5.19763 -2.15317e-06 -4.95843e-06 -1.69871e-06 
208 12 26 10.0868 52.1967 3.17138 -2.0957e-06 -6.13104e-06 -2.02876e-06 
209 13 26 7.98966 48.6576 7.20725 -2.32285e-06 -3.80447e-06 -1.41509e-06 
210 14 26 9.05473 50.5314 4.14856 -1.96672e-06 -5.28334e-06 -1.75812e-06 
211 15 26 10.0643 50.267 4.16338 -2.01538e-06 -5.32071e-06 -1.76166e-06 
212 16 26 13.0868 49.245 7.20876 -2.08032e-06 -4.71019e-06 -1.49951e-06 
213 17 26 8.92576 48.1002 9.27431 -2.99522e-06 -3.55335e-06 -1.51391e-06 
214 18 26 14.0868 51.1785 6.1619 -1.56059e-06 -4.51013e-06 -1.3806e-06 
215 19 26 11.0864 52.6146 3.16245 -1.83945e-06 -5.48162e-06 -1.80155e-06 
216 20 26 13.08 50.955 5.15494 -1.32954e-06 -3.74643e-06 -1.16882e-06 